35
Lattice="22.337589 0.0 0.0 0.0 17.405796000000002 0.0 0.0 0.0 17.477616" Properties=species:S:1:pos:R:3 pol="159.18257 9.07317 0.06897 9.07317 130.1257 1.79714 0.06897 1.79714 134.53036" energy=-433.730465 pbc="T T T"
C        0.00234800      -0.36187900      -1.58689300
C       -1.14488100      -0.64064500      -0.52481000
C        1.43586700      -0.71729000      -1.24975900
C       -2.40332100      -0.00782300      -1.06319000
C        2.01097800       0.19273600      -0.14574600
C       -3.77319400      -0.56136900      -0.61779900
C        3.44726600      -0.01202500       0.36768500
C       -4.18315400      -0.27236400       0.86363000
C        4.11609600       1.06344200       1.23735400
C       -3.76245200      -1.28682400       1.85913600
C        4.19775700       2.51345800       0.71809700
H       -0.21812300      -0.99530700      -2.55702100
H       -0.07881900       0.71444400      -1.89379600
H       -1.21094300      -1.69212500      -0.47875400
H       -0.88092700      -0.13813700       0.41138000
H        1.50374200      -1.75678800      -1.00662900
H        1.97614900      -0.70549100      -2.12389000
H       -2.24791000       1.02895700      -0.65484700
H       -2.41961100      -0.02470200      -2.15969400
H        1.37890800       0.09609600       0.76283400
H        1.96569600       1.28461800      -0.43628000
H       -4.41512400      -0.09610800      -1.27890800
H       -3.87178700      -1.65197400      -0.78009300
H        3.42373900      -0.88904800       1.06458800
H        4.16648500      -0.16846400      -0.49071000
H       -3.60254700       0.65047000       1.19990900
H       -5.24002400      -0.01293600       0.81441200
H        5.09756500       0.74443300       1.50979500
H        3.44925000       1.07653500       2.16964800
H       -2.69363500      -1.41954600       1.78214400
H       -4.14761300      -1.10757100       2.92059500
H       -4.14301100      -2.33343100       1.66769100
H        3.18069300       2.95138000       0.56782600
H        4.61683100       3.07236500       1.51241100
H        4.85835000       2.65635100      -0.12172100
35
Lattice="21.901347 0.0 0.0 0.0 17.153711 0.0 0.0 0.0 16.40551" Properties=species:S:1:pos:R:3 pol="159.06831 6.25066 4.0198 6.25066 130.75342 -2.68269 4.0198 -2.68269 128.17185" energy=-433.737061 pbc="T T T"
C       -0.26738600       1.28734000      -1.41960800
C       -1.22465800       0.78033700      -0.35410300
C        1.26731700       1.08196700      -1.08616100
C       -1.20635100      -0.75936300      -0.14437200
C        1.66615100       1.68382900       0.28138900
C       -2.11750900      -1.27090200       0.96872900
C        3.02919100       1.14867100       0.74936800
C       -3.60323300      -0.80015900       0.69151000
C        3.00372400      -0.32969900       1.07150300
C       -4.12157600      -1.40914200      -0.62619800
C        3.61159500      -1.21161100      -0.02986600
H       -0.47390800       0.75771600      -2.38981800
H       -0.50381100       2.36251000      -1.55103400
H       -1.07049600       1.35719800       0.61287600
H       -2.16327800       1.13275200      -0.74469500
H        1.61017200       0.03594800      -1.12572300
H        1.74075300       1.68807000      -1.87286200
H       -1.57112300      -1.21393700      -1.10080000
H       -0.07905100      -0.99068000      -0.10203800
H        0.93274200       1.44217200       1.00888500
H        1.68383400       2.71252900       0.14112600
H       -2.23225000      -2.35429500       1.07102500
H       -1.68611700      -1.00883900       1.99624000
H        3.87558500       1.43845300       0.13522500
H        3.29441100       1.75344900       1.65238500
H       -4.28966900      -1.21835700       1.47047500
H       -3.71758000       0.27242700       0.75961900
H        1.99753000      -0.67718300       1.18814300
H        3.52602300      -0.43717400       2.01569200
H       -5.25953400      -1.50328000      -0.63341500
H       -3.72950100      -0.86657400      -1.56711500
H       -3.81959800      -2.44118200      -0.64940700
H        3.68760000      -2.22345400       0.38366900
H        2.92433200      -1.28897300      -0.85323100
H        4.64181300      -0.95062100      -0.38078100
35
Lattice="24.356657 0.0 0.0 0.0 16.069736 0.0 0.0 0.0 15.384793" Properties=species:S:1:pos:R:3 pol="171.34299 5.24312 2.40917 5.24312 122.22246 0.1988 2.40917 0.1988 121.34302" energy=-433.73792 pbc="T T T"
C       -0.09227900       0.54493000      -0.32133300
C       -0.72808200      -0.59723300       0.38962500
C        1.41344800       0.23863200      -0.72969800
C       -2.17583300      -0.23154600       0.78992800
C        2.26518400      -0.13501200       0.51421000
C       -3.15025500      -0.36896100      -0.34596200
C        3.70687900      -0.64383500       0.21993700
C       -4.56766900      -0.20467000       0.22125700
C        4.67069100       0.46514200       0.59810800
C       -5.61665800      -0.71186800      -0.79794300
C        4.37116200       1.62535100      -0.37109800
H       -0.64539600       0.78979500      -1.25788300
H       -0.15747400       1.45018100       0.30745100
H       -0.71654200      -1.48244800      -0.37661800
H       -0.17318200      -0.95886700       1.23630100
H        1.43488900      -0.56807000      -1.49794800
H        1.68855200       1.12244800      -1.23517700
H       -2.51791000      -0.81638800       1.60645700
H       -2.09440900       0.78210100       1.20353300
H        1.78033100      -0.86129200       1.12434800
H        2.32250500       0.66574100       1.23517700
H       -2.91101500       0.37068400      -1.14075700
H       -3.02074100      -1.35604100      -0.76771100
H        3.86625500      -1.60158300       0.73244800
H        3.73690200      -0.93458200      -0.90282200
H       -4.69985400      -0.74333000       1.11942100
H       -4.71521600       0.87767300       0.32781500
H        5.67483600       0.11376500       0.49039000
H        4.44208600       0.64240100       1.60653300
H       -6.68182100      -0.55126100      -0.47792700
H       -5.42602600      -0.38511200      -1.77826000
H       -5.60574600      -1.79461100      -0.91051400
H        3.49575100       2.12934700      -0.06827700
H        5.22602100       2.27512500      -0.44433200
H        4.30356000       1.25940800      -1.44599600
35
Lattice="23.201776000000002 0.0 0.0 0.0 16.317557 0.0 0.0 0.0 16.566338000000002" Properties=species:S:1:pos:R:3 pol="166.61158 4.92742 -1.99941 4.92742 125.13435 3.08933 -1.99941 3.08933 125.61217" energy=-433.73206 pbc="T T T"
C       -0.25699300      -0.88858300      -0.71016500
C       -0.97838800       0.42717100      -1.12791600
C        1.29962700      -0.93926900      -0.95746100
C       -2.20121400       0.60635200      -0.29089900
C        2.10217000      -0.03511900       0.00147800
C       -3.22589400      -0.52718000      -0.41778400
C        3.58406700      -0.13624700      -0.33097900
C       -4.57957100      -0.13624100       0.25335200
C        4.40553600       0.38800000       0.81967000
C       -4.77298800      -0.64810600       1.63534000
C        4.63293700       1.85167900       0.93753600
H       -0.32124000      -0.96299700       0.37986300
H       -0.74272000      -1.63036000      -1.22598200
H       -0.22459500       1.31254000      -1.00702600
H       -1.25238000       0.41058400      -2.15670300
H        1.63580600      -1.99238000      -0.69832000
H        1.55801200      -0.80291300      -2.03828100
H       -2.02421100       0.52559000       0.85365000
H       -2.72191000       1.55910100      -0.44777400
H        1.89297800      -0.44794000       0.96441100
H        1.73421900       0.98918800       0.12027000
H       -3.33856400      -0.96378600      -1.42607400
H       -2.80177800      -1.34208000       0.17060600
H        3.82171200      -1.16946600      -0.53245700
H        3.69193000       0.40937700      -1.24477600
H       -4.65786000       0.97247500       0.23096700
H       -5.41836300      -0.59095500      -0.34354300
H        5.39114200      -0.13098900       0.77822000
H        3.92611800      -0.00203500       1.66948300
H       -5.81063400      -0.58193700       1.90194100
H       -4.51022300      -1.64571700       1.74833900
H       -4.20389200       0.03124800       2.40963500
H        3.62041400       2.32517700       1.07396100
H        5.21666100       2.16071000       1.74768700
H        5.19426400       2.21454100       0.01967300
35
Lattice="24.401158000000002 0.0 0.0 0.0 16.651884 0.0 0.0 0.0 15.403602" Properties=species:S:1:pos:R:3 pol="172.92694 6.96464 -0.91706 6.96464 127.75855 2.07187 -0.91706 2.07187 122.27416" energy=-433.742904 pbc="T T T"
C       -0.07844400      -0.89170100       0.13519900
C       -0.93435200       0.37876500      -0.07100200
C        1.29030700      -0.95178100      -0.56427600
C       -2.40443300       0.17115600       0.37590600
C        2.41590400      -0.22952700       0.19201500
C       -3.32711700      -0.42479600      -0.68361400
C        3.77712100      -0.14484100      -0.55116800
C       -4.82312600      -0.02953600      -0.37598600
C        4.92561400       0.52096400       0.24224900
C       -5.45070900      -0.52362000       0.94113400
C        4.68605600       2.01306400       0.36130500
H        0.02958400      -1.16790300       1.21533800
H       -0.75973300      -1.58400800      -0.32061700
H       -0.47378400       1.28493600       0.43600600
H       -0.95331000       0.68650300      -1.08209500
H        1.50934700      -2.02827200      -0.74996900
H        1.16747100      -0.46419200      -1.59345500
H       -2.35511000      -0.45305300       1.28481500
H       -2.81915600       1.21960100       0.60718000
H        2.57482500      -0.79958400       1.13083600
H        2.06633900       0.79868700       0.46370200
H       -3.16259200      -0.04950500      -1.72712700
H       -3.33297300      -1.56458700      -0.81838000
H        4.06459600      -1.16774900      -0.80230200
H        3.66991300       0.35665800      -1.46864200
H       -4.89962000       1.03272100      -0.49729400
H       -5.43236700      -0.35159300      -1.23712300
H        5.82432200       0.37362000      -0.23190600
H        4.97350800       0.14457100       1.24343200
H       -6.57683600      -0.54537600       0.97766900
H       -5.18847500      -1.57937700       1.12175400
H       -5.09379000       0.09536200       1.67647500
H        3.82640300       2.28899500       0.85639500
H        5.55179700       2.62361200       0.78800300
H        4.63338800       2.38942500      -0.60202500
35
Lattice="23.964095 0.0 0.0 0.0 16.168115 0.0 0.0 0.0 15.457564" Properties=species:S:1:pos:R:3 pol="174.16583 5.86153 -0.75877 5.86153 123.50101 1.68912 -0.75877 1.68912 124.71678" energy=-433.740574 pbc="T T T"
C       -0.17888500      -0.84268900      -0.29931700
C       -1.03450800       0.38933000      -0.36497200
C        1.24048600      -0.59671300      -0.88162900
C       -2.42389400       0.33670300       0.23850500
C        2.28669200      -0.06793300       0.13698900
C       -3.27563500      -0.67022100      -0.51813900
C        3.71580400      -0.10641300      -0.47800200
C       -4.83398700      -0.38704000      -0.26585900
C        4.85009000       0.36526000       0.41323900
C       -5.08956000      -0.30965000       1.24820500
C        4.75451900       1.80837700       0.72649000
H       -0.11310200      -1.29595900       0.77182800
H       -0.70942100      -1.61443400      -0.88515100
H       -0.46671500       1.27405300       0.05866400
H       -1.04381600       0.78618600      -1.36856600
H        1.68167100      -1.50300500      -1.36238400
H        1.11344900       0.11400500      -1.68159800
H       -2.39175800       0.06391500       1.29551800
H       -2.93906600       1.26005800       0.19644300
H        2.39906900      -0.75717600       0.94298900
H        1.91083700       0.87145100       0.42702200
H       -3.21468500      -0.54898200      -1.63769100
H       -3.02780100      -1.72443600      -0.21641800
H        3.89143400      -1.11804200      -0.69028900
H        3.64993000       0.50303100      -1.40584100
H       -5.00898500       0.52342800      -0.77873800
H       -5.40197700      -1.07546200      -0.86196500
H        5.81557000       0.10132800      -0.11584000
H        4.92873000      -0.30597400       1.30486600
H       -4.81788700       0.64891800       1.58337600
H       -6.14852500      -0.46754200       1.51280900
H       -4.52826000      -1.16043100       1.77596600
H        3.84196000       1.87207600       1.30138000
H        5.65231700       2.27807500       1.23587300
H        4.55990500       2.44367900      -0.17607500
35
Lattice="21.807513 0.0 0.0 0.0 17.698574 0.0 0.0 0.0 15.549805" Properties=species:S:1:pos:R:3 pol="153.5452 0.93015 2.00154 0.93015 129.6005 2.8521 2.00154 2.8521 117.78208" energy=-433.731606 pbc="T T T"
C       -0.42438700       1.53163200      -0.45455800
C       -1.21787000       1.12101700       0.76160200
C        0.45530600       0.48086300      -0.95956600
C       -2.73599200       1.12933600       0.65903800
C        1.67555700       0.34925800      -0.05135500
C       -3.24754800       0.03882100      -0.32176500
C        2.78136500      -0.53001400      -0.55218900
C       -3.20913200      -1.24023600       0.45343200
C        3.88145200      -0.78450500       0.46991800
C       -2.95599500      -2.38970000      -0.52862900
C        4.83134100       0.39240000       0.54691700
H       -1.15171600       1.93668600      -1.19828300
H        0.10900300       2.39927600      -0.19589300
H       -0.93097100       0.10677200       0.94913600
H       -1.03128400       1.81833300       1.56524700
H        0.00116800      -0.46044700      -1.09637700
H        0.86973700       0.81620500      -1.90020700
H       -3.12453500       1.00842800       1.64959800
H       -3.04842600       2.14084600       0.35943200
H        1.40141100      -0.06006700       0.89824800
H        2.02241400       1.43095300       0.04129000
H       -4.27311700       0.38767400      -0.69137800
H       -2.56585200      -0.03097700      -1.17074900
H        2.24882500      -1.43934900      -0.68385600
H        3.27443400      -0.18606000      -1.41217600
H       -2.44364800      -1.06590400       1.13355900
H       -4.15206900      -1.35434800       1.01616000
H        4.50984000      -1.59187800       0.19310300
H        3.41433500      -1.00110200       1.39594600
H       -2.92905000      -3.29929800       0.03237900
H       -3.66529500      -2.50154200      -1.33148100
H       -1.99980200      -2.20996600      -0.96415500
H        4.30004400       1.31188100       0.80466300
H        5.53439600       0.36861300       1.38313500
H        5.38922300       0.48380700      -0.35990900
35
Lattice="23.703423 0.0 0.0 0.0 16.81494 0.0 0.0 0.0 15.311938" Properties=species:S:1:pos:R:3 pol="168.02668 5.9516 -3.06992 5.9516 126.70599 -0.90658 -3.06992 -0.90658 123.32703" energy=-433.736976 pbc="T T T"
C       -0.15873700      -0.94098400       0.01805900
C       -0.75670900       0.47598900      -0.01062300
C        1.22778500      -1.11285400      -0.63415500
C       -2.25546400       0.46169200       0.39899900
C        2.33027100      -0.53348400       0.24430000
C       -3.13143700      -0.24939400      -0.54856500
C        3.62290000      -0.22042600      -0.52631100
C       -4.60186200       0.10646100      -0.31701900
C        4.55315100       0.57984400       0.38143100
C       -5.15134700      -0.79934400       0.87569800
C        4.39976600       2.09576300       0.10515100
H       -0.08509100      -1.28252500       1.04275800
H       -0.95036000      -1.54135800      -0.49100200
H       -0.23964900       1.04726100       0.70499700
H       -0.67714300       0.94131500      -1.02699200
H        1.48691700      -2.12998400      -0.95437700
H        1.13223300      -0.42161800      -1.51525000
H       -2.31228800       0.02793500       1.37041100
H       -2.51875500       1.51980500       0.53771000
H        2.52507200      -1.07448100       1.16632200
H        1.80535000       0.36446100       0.63814000
H       -2.95304700       0.09641700      -1.66170500
H       -3.04807900      -1.29754000      -0.58207600
H        4.13128200      -1.11656100      -0.81723800
H        3.37575000       0.31179200      -1.52971300
H       -4.74744900       1.12253900      -0.01253400
H       -5.28179500      -0.06488700      -1.15396500
H        5.58596200       0.39712500       0.11334200
H        4.24372300       0.47556200       1.43486400
H       -5.24450200      -1.86522000       0.65287100
H       -4.44612200      -0.70848600       1.65023300
H       -6.11746100      -0.45328800       1.15984300
H        3.39302500       2.37637600       0.36307700
H        5.06641300       2.68495600       0.71709300
H        4.70184400       2.42878100      -0.95843900
35
Lattice="24.804612 0.0 0.0 0.0 16.826526 0.0 0.0 0.0 15.676621" Properties=species:S:1:pos:R:3 pol="177.53919 4.12373 0.70939 4.12373 124.95 -1.85499 0.70939 -1.85499 127.08473" energy=-433.731968 pbc="T T T"
C       -0.34749700       1.25127800      -0.64002400
C       -0.94560300       0.19610200       0.28753500
C        1.10557200       0.84190200      -1.12114100
C       -2.45100600       0.11310400       0.70855800
C        2.09392300       0.82712800      -0.03121900
C       -3.17244900      -0.72587200      -0.38093200
C        3.44575200       0.28569800      -0.49043500
C       -4.70923000      -0.67161700      -0.38577300
C        4.43661300       0.21961200       0.77870100
C       -5.32853300      -1.65044400       0.65804100
C        5.78068900      -0.50946000       0.57152600
H       -0.87737500       1.31563700      -1.63658400
H       -0.34625700       2.15608800      -0.08974700
H       -0.80745800      -0.77629300      -0.19436700
H       -0.32181500       0.28643600       1.20914900
H        1.02577300      -0.11009700      -1.65173000
H        1.40403500       1.48236900      -1.97215500
H       -2.40157300      -0.32893400       1.70446600
H       -2.87229700       1.12181300       0.87545300
H        1.77845000       0.22542600       0.83121700
H        2.31725000       1.89960300       0.33736000
H       -2.82895700      -0.42328700      -1.33744500
H       -2.84397600      -1.73716400      -0.34722300
H        3.20674900      -0.75251500      -0.92884400
H        3.92437800       0.89789500      -1.24195300
H       -4.98757000       0.43429100      -0.10904700
H       -5.07896700      -0.93951500      -1.36986700
H        3.85163400      -0.26026200       1.59905400
H        4.76631800       1.17431200       0.97628900
H       -6.42197200      -1.54007600       0.76491500
H       -5.07138900      -2.67043800       0.41433300
H       -4.89474900      -1.22928800       1.60106200
H        6.38264000       0.02385000      -0.15967100
H        6.23948300      -0.60709600       1.57176300
H        5.72631200      -1.57779100       0.38782500
35
Lattice="22.208796 0.0 0.0 0.0 18.252372 0.0 0.0 0.0 15.470387" Properties=species:S:1:pos:R:3 pol="156.13419 1.8648 1.97384 1.8648 133.19553 2.8907 1.97384 2.8907 120.91037" energy=-433.738382 pbc="T T T"
C       -0.47386900       1.69542800      -0.50365900
C       -1.24963800       1.32161200       0.86918400
C        0.68381400       0.77889000      -1.00855800
C       -2.75206100       1.07658100       0.63466000
C        1.83073300       0.66019700      -0.01246500
C       -3.25874500      -0.11026600      -0.26691600
C        2.68714900      -0.59776300      -0.41884900
C       -3.05727100      -1.44458900       0.41648100
C        3.84358300      -0.85543300       0.51337700
C       -3.25779200      -2.59111700      -0.58691700
C        4.93216700       0.21823400       0.46080300
H       -1.16857900       1.71993600      -1.36702800
H       -0.14124800       2.71150200      -0.44921500
H       -0.79739300       0.42752800       1.23886200
H       -1.14777000       2.22876600       1.43767000
H        0.21970000      -0.16706500      -1.24535500
H        1.04293800       1.22225500      -1.92534000
H       -3.33652100       1.02975700       1.54504700
H       -3.10232000       1.97300800       0.11897900
H        1.45068700       0.51512100       0.98743800
H        2.48617200       1.57599800      -0.09012500
H       -4.39074200      -0.05950400      -0.46961600
H       -2.76548700      -0.09283600      -1.20963300
H        2.10935900      -1.47209000      -0.30585600
H        3.01507400      -0.43739200      -1.42518600
H       -2.12229600      -1.61447000       0.90026300
H       -3.86346500      -1.57779100       1.15033200
H        4.18270100      -1.81003300       0.23548000
H        3.58258000      -0.86527500       1.54144000
H       -3.35659200      -3.54087000      -0.15151500
H       -4.25328900      -2.34465300      -1.00393100
H       -2.56729100      -2.57981800      -1.40669800
H        4.57671400       1.09681200      -0.03536100
H        5.15938700       0.60628300       1.48115900
H        5.81805400      -0.17204600      -0.02671600
35
Lattice="21.994749 0.0 0.0 0.0 17.267693 0.0 0.0 0.0 15.965779999999999" Properties=species:S:1:pos:R:3 pol="158.84647 0.57715 0.92179 0.57715 130.54489 3.34334 0.92179 3.34334 124.8275" energy=-433.732318 pbc="T T T"
C       -0.60023000       0.95093600      -0.88551000
C       -1.10871900       0.77834500       0.53007700
C        0.66186700       0.00204700      -1.12345100
C       -2.52586900       1.20127900       0.80264500
C        1.81938300       0.37547300      -0.20246500
C       -3.63479600       0.38086900       0.15323800
C        3.06079700      -0.45067600      -0.55795500
C       -3.49189700      -1.12881100       0.48668400
C        4.12758500      -0.66829600       0.50973100
C       -3.02514800      -1.98451100      -0.71685500
C        4.57218700       0.66271000       1.03750400
H       -1.37445600       0.90870200      -1.68286400
H       -0.15279700       1.92704300      -0.98133400
H       -0.92315700      -0.24991700       0.81359500
H       -0.34995000       1.34920600       1.14443600
H        0.44631300      -1.06612900      -1.15492000
H        1.02683800       0.22843100      -2.11726300
H       -2.84140900       1.08198500       1.84851700
H       -2.69360100       2.23293800       0.50250300
H        1.55573700       0.16047700       0.87489600
H        2.03657800       1.46515000      -0.38828600
H       -4.49431700       0.78453900       0.64782400
H       -3.70094500       0.45246500      -1.00115000
H        2.76260100      -1.52241600      -0.69386600
H        3.54588200       0.01018400      -1.50046100
H       -2.74111200      -1.28479300       1.21108400
H       -4.36687800      -1.52631300       0.95753300
H        4.88428500      -1.32746100       0.09442000
H        3.65362200      -1.32204000       1.26154400
H       -3.00347700      -3.03475500      -0.37104000
H       -3.71668500      -1.89105700      -1.58052800
H       -2.02889400      -1.65441800      -1.15651100
H        3.82526700       0.96919900       1.74340100
H        5.50043200       0.58546600       1.49896500
H        4.65620700       1.48590600       0.31723800
35
Lattice="24.318703 0.0 0.0 0.0 16.087193 0.0 0.0 0.0 15.860501" Properties=species:S:1:pos:R:3 pol="173.28437 7.71637 1.94224 7.71637 124.08598 -2.38243 1.94224 -2.38243 127.54885" energy=-433.744992 pbc="T T T"
C       -0.15204300       0.96908100      -0.91471400
C       -1.05228300      -0.20086300      -0.70717700
C        1.23318400       0.47800800      -1.27359400
C       -2.48696200       0.10978700      -0.31185200
C        2.12809100       0.52654300      -0.01118800
C       -3.05950100      -1.08906800       0.63392800
C        3.49516400      -0.19841800      -0.26835500
C       -4.48663300      -0.85676500       1.12754000
C        4.42992100       0.00815000       0.93702600
C       -5.54274800      -0.87584500      -0.05961000
C        5.43065500       1.14004400       0.83171500
H       -0.53730000       1.66431600      -1.75132200
H       -0.03826500       1.52434200       0.00136800
H       -0.98248400      -0.75794400      -1.63202500
H       -0.61589000      -0.84939900       0.05178100
H        1.17446000      -0.57289300      -1.69224400
H        1.75185900       1.06349400      -2.00711600
H       -2.50869100       1.00789900       0.25481000
H       -3.00302800       0.12160900      -1.28331600
H        1.58548000       0.07849400       0.83731400
H        2.35969200       1.58105900       0.28754700
H       -2.97535000      -1.96330500      -0.03591600
H       -2.38329200      -1.23729000       1.47676000
H        3.20986000      -1.27563600      -0.34566600
H        3.93228100       0.29605800      -1.15458700
H       -4.78674700      -1.65916600       1.85338500
H       -4.54349200       0.13233100       1.64692400
H        5.03755100      -0.87845500       1.06509400
H        3.79304600       0.15634600       1.82801900
H       -5.99706500      -1.85919000      -0.10789800
H       -6.19555200      -0.05708500       0.12268100
H       -4.94402500      -0.68357400      -0.97776800
H        4.97888100       2.12388800       0.67330300
H        6.08989300       1.14170200       1.76379900
H        6.12315100       0.97049200       0.01244600
35
Lattice="22.336725 0.0 0.0 0.0 16.577916000000002 0.0 0.0 0.0 17.43402" Properties=species:S:1:pos:R:3 pol="157.32949 5.83135 0.22701 5.83135 126.62099 3.24038 0.22701 3.24038 134.24346" energy=-433.742709 pbc="T T T"
C       -0.14536900      -0.25735800      -1.73943500
C       -0.79215300      -0.90178100      -0.49431400
C        1.33706000      -0.05719600      -1.57903800
C       -2.26621000      -1.14882900      -0.77555100
C        1.80812100       1.03751300      -0.56696100
C       -3.06721800      -1.55972300       0.45622200
C        3.31259100       1.06639500      -0.45289700
C       -3.41472100      -0.33491100       1.34917200
C        3.90284100       0.36590400       0.76204500
C       -4.51897700       0.47010100       0.79622000
C        3.83060800       1.19200300       2.09442500
H       -0.44097700      -0.77181000      -2.69840900
H       -0.38854700       0.83457300      -1.80747700
H       -0.32802600      -1.90990100      -0.31889800
H       -0.61859100      -0.23333300       0.36251000
H        1.87071000      -1.00945600      -1.30025800
H        1.80206100       0.28075000      -2.49912100
H       -2.70181400      -0.24063600      -1.16015200
H       -2.29253300      -1.94327500      -1.52283400
H        1.38341400       0.77333500       0.42176400
H        1.40420400       2.05810100      -0.78109000
H       -4.01859500      -2.11070200       0.20439500
H       -2.47882000      -2.29091200       1.04403000
H        3.71363900       0.51292600      -1.30328800
H        3.71040800       2.07044900      -0.45239600
H       -3.60207100      -0.68739200       2.37974300
H       -2.55298500       0.37095300       1.39734200
H        4.98005400       0.43434900       0.44129300
H        3.58705900      -0.64586200       0.96592600
H       -4.97530400       1.11168700       1.57479900
H       -4.27807100       0.98342600      -0.18898100
H       -5.35667100      -0.16465600       0.44553200
H        4.71515900       1.04458200       2.73561100
H        3.81343600       2.28700400       1.91808000
H        2.98061100       0.97779200       2.63664900
35
Lattice="24.316509 0.0 0.0 0.0 16.114212000000002 0.0 0.0 0.0 16.473249" Properties=species:S:1:pos:R:3 pol="173.97565 4.45809 -0.59863 4.45809 120.48892 3.24653 -0.59863 3.24653 128.29204" energy=-433.737588 pbc="T T T"
C       -0.23823200       0.14513700      -0.13018200
C       -1.25841000      -0.28923700      -1.28375600
C        1.18696500       0.10596100      -0.73861800
C       -2.72833300      -0.04742800      -0.81735800
C        2.38708100       0.28428200       0.15720100
C       -3.31173300      -1.09644400       0.18223100
C        3.75682900       0.19454600      -0.61775600
C       -4.81621700      -0.90898400       0.34441300
C        4.98327500       0.08037700       0.31227700
C       -5.07351500       0.34797100       1.10094800
C        5.10749700       1.10259200       1.43694800
H       -0.59529000       1.09251600       0.27056600
H       -0.36597300      -0.61619400       0.75395500
H       -1.18058600       0.36036100      -2.18650200
H       -1.12767500      -1.29940600      -1.55454300
H        1.20463400      -0.87687200      -1.19420400
H        1.27780200       0.77918600      -1.55999500
H       -2.70183100       0.89581800      -0.31392000
H       -3.34906700      -0.02695900      -1.68608900
H        2.49857700      -0.47344700       0.92034400
H        2.33600500       1.30638000       0.56313100
H       -3.13677900      -2.07473800      -0.33206300
H       -2.72963100      -1.11023100       1.07816000
H        3.70285800      -0.63924000      -1.36011100
H        3.78840600       1.10616200      -1.22022400
H       -5.27152000      -0.92458200      -0.67890000
H       -5.21085800      -1.78768800       0.75801900
H        5.83685500       0.31203400      -0.41759000
H        4.95874100      -0.96472200       0.68615200
H       -4.39727100       0.41868300       1.98721300
H       -5.06621900       1.19075000       0.37270300
H       -6.16411700       0.43803200       1.40198900
H        4.52084900       0.77880100       2.28674700
H        6.15239200       1.24749800       1.63630900
H        4.84371400       2.03947400       1.12506500
35
Lattice="25.056721 0.0 0.0 0.0 15.578674 0.0 0.0 0.0 15.651145" Properties=species:S:1:pos:R:3 pol="176.87523 4.30963 0.78358 4.30963 122.30919 0.82399 0.78358 0.82399 125.30564" energy=-433.731165 pbc="T T T"
C       -0.23652000       0.88197200      -0.09783200
C       -1.15148200      -0.32997100      -0.27983000
C        1.11570100       0.64622600      -0.73444600
C       -2.61709800       0.04514100       0.06684100
C        2.26445600       0.67815600       0.32748500