345
Lattice="50 0 0 0 50 0 0 0 50" Properties=species:S:1:pos:R:3:force:R:3:axx:R:1:ayy:R:1:azz:R:1:axy:R:1:ayz:R:1:axz:R:1 energy=-19035.752228163852 pol="1150.28235 -0.12981 -1.03945 -0.14197 1205.99831 58.25517 -1.03758 58.26083 1200.69689" pbc="F F F"
H       -4.92161521      -2.03407649       5.53271196 0  0  0   2.504    2.504    2.504    0    0    0
H       -3.03623415      -0.85002827       6.70397530 0  0  0   2.529    2.529    2.529    0    0    0
C       -3.90663957      -4.53500902       4.83926082 0  0  0   6.752    6.752    6.752    0    0    0
C       -3.25901734      -3.45199463       5.68060966 0  0  0   6.593    6.593    6.593    0    0    0
H       -2.57324542      -2.83841788       5.07335431 0  0  0   2.534    2.534    2.534    0    0    0
H       -4.52597765      -4.10301561       4.03690938 0  0  0   2.486    2.486    2.486    0    0    0
C       -0.14414898       1.56837709       6.49895481 0  0  0   6.6    6.6    6.6    0    0    0
C        0.40164885       2.57112966       7.54350427 0  0  0   6.754    6.754    6.754    0    0    0
H       -0.92834843       0.95935736       6.99120148 0  0  0   2.57    2.57    2.57    0    0    0
H       -0.67208666       2.14686428       5.72218848 0  0  0   2.519    2.519    2.519    0    0    0
H        1.12934788       3.26466568       7.09382947 0  0  0   2.516    2.516    2.516    0    0    0
H       -4.05681885       2.33025745       6.25661025 0  0  0   2.512    2.512    2.512    0    0    0
C        0.15865165      -0.30703929       4.73821510 0  0  0   6.612    6.612    6.612    0    0    0
C        0.83171654       0.60653706       5.79507134 0  0  0   6.609    6.609    6.609    0    0    0
H       -0.53727550      -0.99813151       5.24718443 0  0  0   2.553    2.553    2.553    0    0    0
H       -0.46348558       0.32114643       4.07609210 0  0  0   2.502    2.502    2.502    0    0    0
H        1.36009342      -0.01412879       6.53940748 0  0  0   2.56    2.56    2.56    0    0    0
H        1.61289901       1.20227110       5.29303330 0  0  0   2.553    2.553    2.553    0    0    0
H       -3.47231642       0.44929422       4.61102500 0  0  0   2.529    2.529    2.529    0    0    0
C        0.34112308      -1.92110912       2.91409822 0  0  0   6.743    6.743    6.743    0    0    0
C        1.12939808      -1.10657757       3.87391674 0  0  0   6.579    6.579    6.579    0    0    0
H       -0.51032306      -1.35279607       2.50507026 0  0  0   2.467    2.467    2.467    0    0    0
H        1.77270679      -1.74875583       4.49864230 0  0  0   2.525    2.525    2.525    0    0    0
H       -3.49634409      -1.76033099       3.44043149 0  0  0   2.477    2.477    2.477    0    0    0
H       -2.74235123      -0.79828021       2.16178336 0  0  0   2.568    2.568    2.568    0    0    0
H        0.80474085      -4.61165136       5.49734646 0  0  0   2.467    2.467    2.467    0    0    0
H       -0.75623612      -2.41944300       7.31327119 0  0  0   2.426    2.426    2.426    0    0    0
H        0.99404907      -2.10336604       7.50766137 0  0  0   2.478    2.478    2.478    0    0    0
H        3.51073529      -2.41065495       6.27107318 0  0  0   2.554    2.554    2.554    0    0    0
C        0.14952127      -2.73026971       7.83838196 0  0  0   6.941    6.941    6.941    0    0    0
C       -4.34604915      -2.55377404       6.31744120 0  0  0   6.604    6.604    6.604    0    0    0
C       -3.69225990      -1.53853122       7.26208167 0  0  0   6.746    6.746    6.746    0    0    0
H       -5.05616798      -3.18291023       6.87896969 0  0  0   2.539    2.539    2.539    0    0    0
H       -4.44552648      -0.93135899       7.78946500 0  0  0   2.532    2.532    2.532    0    0    0
H       -3.08399892      -2.04822153       8.02544234 0  0  0   2.507    2.507    2.507    0    0    0
H       -0.42582481       3.16616815       7.96107172 0  0  0   2.503    2.503    2.503    0    0    0
H        0.90364655       2.04825447       8.37217720 0  0  0   2.519    2.519    2.519    0    0    0
H       -4.54861585      -5.17659232       5.46433530 0  0  0   2.529    2.529    2.529    0    0    0
H       -2.65226893      -3.91533174       6.47710027 0  0  0   2.524    2.524    2.524    0    0    0
H        0.01255866      -2.61412267       8.92152153 0  0  0   2.5    2.5    2.5    0    0    0
H        0.37038514      -3.78152293       7.60923702 0  0  0   2.478    2.478    2.478    0    0    0
H       -7.29013523       1.02271991       2.48861179 0  0  0   2.465    2.465    2.465    0    0    0
C       -7.93106849      -0.18467593       0.05520489 0  0  0   6.594    6.594    6.594    0    0    0
H       -6.91710727      -0.37843229       0.45733045 0  0  0   2.52    2.52    2.52    0    0    0
H       -7.82202341       0.65841564      -0.64799328 0  0  0   2.529    2.529    2.529    0    0    0
C       -4.96044300       1.98172290       4.33050689 0  0  0   6.591    6.591    6.591    0    0    0
C       -4.49185131       2.89445010       5.41547522 0  0  0   6.739    6.739    6.739    0    0    0
H       -5.80707073       1.39237161       4.73214970 0  0  0   2.56    2.56    2.56    0    0    0
H       -5.37971877       2.57790207       3.50099538 0  0  0   2.512    2.512    2.512    0    0    0
H       -3.73208922       3.60769437       5.05797672 0  0  0   2.537    2.537    2.537    0    0    0
C       -4.63545114      -0.00243460       2.85240022 0  0  0   6.607    6.607    6.607    0    0    0
C       -3.93505075       1.00085582       3.77285882 0  0  0   6.602    6.602    6.602    0    0    0
H       -5.54367768      -0.39178038       3.34410306 0  0  0   2.57    2.57    2.57    0    0    0
H       -4.95672822       0.49814177       1.92383801 0  0  0   2.511    2.511    2.511    0    0    0
H       -3.11933921       1.52234867       3.24711628 0  0  0   2.542    2.542    2.542    0    0    0
C       -3.70764878      -1.19448803       2.52119613 0  0  0   6.606    6.606    6.606    0    0    0
C       -4.82329501       4.46463927       0.93160492 0  0  0   6.606    6.606    6.606    0    0    0
C       -4.36991082       5.32400091       2.07153749 0  0  0   6.742    6.742    6.742    0    0    0
H       -5.85714114       4.13107737       1.14282611 0  0  0   2.609    2.609    2.609    0    0    0
H       -4.90225955       5.09705403       0.03416922 0  0  0   2.52    2.52    2.52    0    0    0
H       -4.20127577       4.73530976       2.98646713 0  0  0   2.489    2.489    2.489    0    0    0
H       -3.42884173       5.84565114       1.83568905 0  0  0   2.516    2.516    2.516    0    0    0
C       -4.50604642       2.43912144      -0.63610389 0  0  0   6.608    6.608    6.608    0    0    0
C       -3.99715544       3.17994623       0.56602172 0  0  0   6.617    6.617    6.617    0    0    0
H       -5.55441484       2.14858544      -0.43739134 0  0  0   2.593    2.593    2.593    0    0    0
H       -4.54740050       3.16472848      -1.47010928 0  0  0   2.488    2.488    2.488    0    0    0
H       -3.97133684       2.51378779       1.44179299 0  0  0   2.507    2.507    2.507    0    0    0
H       -2.95030423       3.48645409       0.38900457 0  0  0   2.567    2.567    2.567    0    0    0
C       -3.76681041       1.19998542      -1.13797094 0  0  0   6.571    6.571    6.571    0    0    0
H       -3.77491853       0.39687374      -0.38440302 0  0  0   2.55    2.55    2.55    0    0    0
H       -2.71090992       1.43681499      -1.35381002 0  0  0   2.562    2.562    2.562    0    0    0
H       -7.01751729       2.17704292      -2.35310157 0  0  0   2.422    2.422    2.422    0    0    0
H       -2.27124828       5.90196099       4.69678092 0  0  0   2.515    2.515    2.515    0    0    0
H       -1.81626718       3.69348606       3.24268923 0  0  0   2.544    2.544    2.544    0    0    0
H       -1.23597474       1.50755559       1.95363460 0  0  0   2.575    2.575    2.575    0    0    0
H       -1.09754239       0.06936331      -0.06459829 0  0  0   2.502    2.502    2.502    0    0    0
H       -5.48100349       3.51353016      -3.69520198 0  0  0   2.43    2.43    2.43    0    0    0
C       -7.78544409       2.25782878      -3.13149862 0  0  0   6.945    6.945    6.945    0    0    0
C       -8.24385750       1.33440218       2.03486141 0  0  0   6.752    6.752    6.752    0    0    0
C       -8.83492769       0.22738405       1.19859063 0  0  0   6.592    6.592    6.592    0    0    0
H       -5.33556804       3.48144539       5.81595441 0  0  0   2.53    2.53    2.53    0    0    0
H       -9.02672720      -0.64478491       1.84893513 0  0  0   2.55    2.55    2.55    0    0    0
H       -9.81740083       0.54008632       0.80231338 0  0  0   2.557    2.557    2.557    0    0    0
H       -8.92085338       1.62052735       2.85622690 0  0  0   2.538    2.538    2.538    0    0    0
H       -8.05194471       2.23727237       1.43169886 0  0  0   2.535    2.535    2.535    0    0    0
H       -5.12759265       6.09010328       2.30266728 0  0  0   2.533    2.533    2.533    0    0    0
H       -8.55775487       2.96771835      -2.80332834 0  0  0   2.487    2.487    2.487    0    0    0
H       -5.80497171       5.67205638      -1.98736164 0  0  0   2.506    2.506    2.506    0    0    0
H       -0.07849899      -2.80149124       3.42181321 0  0  0   2.504    2.504    2.504    0    0    0
H       -3.15414822      -5.18395450       4.36193146 0  0  0   2.519    2.519    2.519    0    0    0
H        0.93920505      -2.28673996       2.06252437 0  0  0   2.539    2.539    2.539    0    0    0
H       -3.53611660      -2.91672950       1.18301666 0  0  0   2.502    2.502    2.502    0    0    0
H       -5.48935606      -1.07355565      -6.48693561 0  0  0   2.477    2.477    2.477    0    0    0
C        0.35329517      -5.63108921       3.65465902 0  0  0   6.594    6.594    6.594    0    0    0
C        0.62105396      -5.63364628       5.13081228 0  0  0   6.744    6.744    6.744    0    0    0
H       -0.55774277      -5.04569770       3.43983695 0  0  0   2.541    2.541    2.541    0    0    0
H        1.17842203      -5.10451142       3.14284576 0  0  0   2.532    2.532    2.532    0    0    0
C        0.10032520      -7.14146470       1.44322334 0  0  0   6.753    6.753    6.753    0    0    0
C        0.19532116      -7.05690841       2.99074697 0  0  0   6.615    6.615    6.615    0    0    0
H       -0.75585798      -6.55694576       1.08302917 0  0  0   2.457    2.457    2.457    0    0    0
H        1.01422771      -6.75281085       0.97112237 0  0  0   2.513    2.513    2.513    0    0    0
C       -4.29139225      -5.78575058       1.02950636 0  0  0   6.744    6.744    6.744    0    0    0
H       -3.51423983      -5.08732232       0.68541228 0  0  0   2.509    2.509    2.509    0    0    0
H       -3.87826886      -6.35943168       1.87307871 0  0  0   2.503    2.503    2.503    0    0    0
H       -5.13191422      -5.18645805       1.41663555 0  0  0   2.517    2.517    2.517    0    0    0
H       -2.84708915      -7.44643534      -0.96037368 0  0  0   2.489    2.489    2.489    0    0    0
H        0.24719035      -0.97414022       0.43525730 0  0  0   2.43    2.43    2.43    0    0    0
H        2.95358335      -6.44798577      -0.09645257 0  0  0   2.562    2.562    2.562    0    0    0
C       -0.26256350      -3.48517558      -0.43079526 0  0  0   6.745    6.745    6.745    0    0    0
H        0.60022903      -3.83306258       0.16059022 0  0  0   2.518    2.518    2.518    0    0    0
H       -0.94409321      -2.95565080       0.25500368 0  0  0   2.502    2.502    2.502    0    0    0
H        0.10398822      -2.75712093      -1.17241579 0  0  0   2.483    2.483    2.483    0    0    0
C       -0.06580816      -5.44821754      -2.05487907 0  0  0   6.626    6.626    6.626    0    0    0
C       -0.96346502      -4.63372313      -1.10671434 0  0  0   6.588    6.588    6.588    0    0    0
H        0.50286201      -4.70977808      -2.65877395 0  0  0   2.542    2.542    2.542    0    0    0
H        0.69765005      -5.97022622      -1.44613863 0  0  0   2.537    2.537    2.537    0    0    0
H       -1.79129563      -4.20869867      -1.69739575 0  0  0   2.529    2.529    2.529    0    0    0
H       -1.43606770      -5.29151745      -0.36252753 0  0  0   2.559    2.559    2.559    0    0    0
C       -0.63420808      -6.48986657      -3.09068035 0  0  0   6.608    6.608    6.608    0    0    0
H        0.93320347      -6.12852598      -4.56852624 0  0  0   2.518    2.518    2.518    0    0    0
H       -1.09853287      -7.34153897      -2.56830661 0  0  0   2.562    2.562    2.562    0    0    0
C        0.51372541      -6.97338492      -4.00121286 0  0  0   6.751    6.751    6.751    0    0    0
C       -3.75902120      -7.84909930      -0.49358058 0  0  0   6.765    6.765    6.765    0    0    0
C       -4.74864026      -6.69846242      -0.08323824 0  0  0   6.594    6.594    6.594    0    0    0
H       -0.23130704      -6.04569698       5.69360462 0  0  0   2.533    2.533    2.533    0    0    0
H        1.50891095      -6.24044243       5.37187681 0  0  0   2.527    2.527    2.527    0    0    0
H       -0.04078097      -8.18350044       1.11953271 0  0  0   2.515    2.515    2.515    0    0    0
H       -0.70098115      -7.52945234       3.42316417 0  0  0   2.565    2.565    2.565    0    0    0
H        1.04701775      -7.68262617       3.31402832 0  0  0   2.558    2.558    2.558    0    0    0
H       -3.46013509      -8.43493090       0.38988568 0  0  0   2.512    2.512    2.512    0    0    0
H       -4.24479427      -8.52738104      -1.21217403 0  0  0   2.531    2.531    2.531    0    0    0
H       -5.69141442      -7.17963954       0.23299145 0  0  0   2.569    2.569    2.569    0    0    0
H        1.32134634      -7.42554426      -3.40377980 0  0  0   2.501    2.501    2.501    0    0    0
H        0.16890449      -7.72612178      -4.72747542 0  0  0   2.523    2.523    2.523    0    0    0
H       -7.65607806      -1.70277685      -1.47326775 0  0  0   2.501    2.501    2.501    0    0    0
C       -4.26981295      -2.13914450       1.44119691 0  0  0   6.751    6.751    6.751    0    0    0
H       -5.19385361      -2.63236425       1.78195694 0  0  0   2.541    2.541    2.541    0    0    0
H       -4.50016144      -1.57588962       0.52473491 0  0  0   2.5    2.5    2.5    0    0    0
C       -4.48231133       0.81477415      -2.35583098 0  0  0   6.741    6.741    6.741    0    0    0
H       -4.01603773      -0.04581811      -2.86266585 0  0  0   2.545    2.545    2.545    0    0    0
H       -5.51874675       0.51442043      -2.12992279 0  0  0   2.527    2.527    2.527    0    0    0
H       -4.50733242       1.62717303      -3.09430335 0  0  0   2.444    2.444    2.444    0    0    0
H       -3.75906141      -3.45743903      -1.27578789 0  0  0   2.481    2.481    2.481    0    0    0
C       -4.40556841      -3.41170558      -3.35426760 0  0  0   6.585    6.585    6.585    0    0    0
C       -4.66720346      -3.25842225      -1.86234042 0  0  0   6.754    6.754    6.754    0    0    0
H       -5.29035186      -3.07680978      -3.92145260 0  0  0   2.543    2.543    2.543    0    0    0
H       -3.56685959      -2.76044626      -3.66089212 0  0  0   2.553    2.553    2.553    0    0    0
H       -5.00162401      -2.23490433      -1.62062340 0  0  0   2.51    2.51    2.51    0    0    0
H       -5.45383386      -3.94631976      -1.51930097 0  0  0   2.507    2.507    2.507    0    0    0
C       -4.11456709      -4.85632542      -3.67568622 0  0  0   6.604    6.604    6.604    0    0    0
H       -2.96342108      -4.71287575      -5.55454615 0  0  0   2.486    2.486    2.486    0    0    0
H       -3.26326826      -5.19418830      -3.06118338 0  0  0   2.492    2.492    2.492    0    0    0
H       -1.41345016      -6.02513074      -3.71454551 0  0  0   2.479    2.479    2.479    0    0    0
H       -1.53784066      -1.49945614      -3.13215686 0  0  0   2.517    2.517    2.517    0    0    0
H       -1.39012423      -3.37217026      -4.95363289 0  0  0   2.517    2.517    2.517    0    0    0
C       -5.17484368      -0.27611160      -5.80846302 0  0  0   6.95    6.95    6.95    0    0    0
H       -4.64232346      -0.71167727      -4.94728137 0  0  0   2.435    2.435    2.435    0    0    0
H       -4.50104429       0.41688899      -6.33672680 0  0  0   2.485    2.485    2.485    0    0    0
C       -8.38422447      -1.41954934      -0.69602060 0  0  0   6.752    6.752    6.752    0    0    0
C       -3.83998879      -5.24237117      -5.15168332 0  0  0   6.762    6.762    6.762    0    0    0
H       -4.99710717      -6.10627983      -0.97948304 0  0  0   2.503    2.503    2.503    0    0    0
H       -9.35504546      -1.25029821      -1.18960301 0  0  0   2.536    2.536    2.536    0    0    0
H       -8.49967253      -2.27807435      -0.01531896 0  0  0   2.523    2.523    2.523    0    0    0
H       -8.23566530       1.27134147      -3.30972872 0  0  0   2.478    2.478    2.478    0    0    0
H       -7.33163326       2.61601559      -4.06323865 0  0  0   2.464    2.464    2.464    0    0    0
H       -4.70186696      -5.00344149      -5.79410235 0  0  0   2.532    2.532    2.532    0    0    0
H       -3.64532183      -6.32458325      -5.22494681 0  0  0   2.522    2.522    2.522    0    0    0
H       -4.97757580      -5.46004018      -3.33724698 0  0  0   2.561    2.561    2.561    0    0    0
H       -6.05617616       0.27414099      -5.44853776 0  0  0   2.468    2.468    2.468    0    0    0
H        1.79720821      -0.41745253       3.33914083 0  0  0   2.554    2.554    2.554    0    0    0
C        3.38679238       3.77905654       4.64441386 0  0  0   6.757    6.757    6.757    0    0    0
H        2.78375006       3.15430015       5.31951749 0  0  0   2.503    2.503    2.503    0    0    0
H        2.70038508       4.32154462       3.97475569 0  0  0   2.491    2.491    2.491    0    0    0
C       -0.34040648       5.01618130       4.04833912 0  0  0   6.6    6.6    6.6    0    0    0
H       -0.21581689       4.42469122       4.97012447 0  0  0   2.508    2.508    2.508    0    0    0
H        0.65713065       5.40935410       3.78220264 0  0  0   2.568    2.568    2.568    0    0    0
C        3.66576309       1.91325717       2.89914955 0  0  0   6.605    6.605    6.605    0    0    0
C        4.37390206       2.92142022       3.81556689 0  0  0   6.602    6.602    6.602    0    0    0
H        3.01101563       1.26186632       3.49450539 0  0  0   2.543    2.543    2.543    0    0    0
H        3.02500244       2.46073794       2.18697945 0  0  0   2.495    2.495    2.495    0    0    0
H        5.05056346       2.38275851       4.49963386 0  0  0   2.549    2.549    2.549    0    0    0
H        5.00703717       3.58872119       3.20335288 0  0  0   2.545    2.545    2.545    0    0    0
C        0.11421195       3.08830632       2.51519038 0  0  0   6.599    6.599    6.599    0    0    0
H        0.45206967       2.52129568       3.40062901 0  0  0   2.5    2.5    2.5    0    0    0
H        1.01294065       3.57771934       2.10087621 0  0  0   2.588    2.588    2.588    0    0    0
C        4.22297726       0.20377798       1.05879418 0  0  0   6.735    6.735    6.735    0    0    0
C        4.70405956       1.10686603       2.15605363 0  0  0   6.587    6.587    6.587    0    0    0
H        3.65992854       0.77196693       0.30435555 0  0  0   2.476    2.476    2.476    0    0    0
H        5.27105404       0.50949847       2.89333605 0  0  0   2.541    2.541    2.541    0    0    0
H        5.42713114       1.80975573       1.71184164 0  0  0   2.562    2.562    2.562    0    0    0
C        0.61261573       1.15318793       0.83429625 0  0  0   6.606    6.606    6.606    0    0    0
H        1.25378751       0.73178312       1.62287973 0  0  0   2.475    2.475    2.475    0    0    0
H        1.28184646       1.75845249       0.19974531 0  0  0   2.602    2.602    2.602    0    0    0
H        3.56062049      -0.59113529       1.43713357 0  0  0   2.546    2.546    2.546    0    0    0
C        4.93298044      -0.76797479       6.12470536 0  0  0   6.747    6.747    6.747    0    0    0
H        4.43913699      -0.14796451       5.35850384 0  0  0   2.455    2.455    2.455    0    0    0
C        4.69684435      -2.51711613       4.42478360 0  0  0   6.764    6.764    6.764    0    0    0
C        4.55067636      -2.22989701       5.95316020 0  0  0   6.582    6.582    6.582    0    0    0
H        3.97093715      -1.91738200       3.85228009 0  0  0   2.471    2.471    2.471    0    0    0
H        5.70718214      -2.24507575       4.08123446 0  0  0   2.49    2.49    2.49    0    0    0
H        7.05913362       2.87834323       1.01976798 0  0  0   2.461    2.461    2.461    0    0    0
H        4.22147067       5.19239090       0.65475083 0  0  0   2.572    2.572    2.572    0    0    0
C        4.39741051       3.60938609      -1.52490679 0  0  0   6.601    6.601    6.601    0    0    0
H        5.08321359       3.28773946      -0.72445939 0  0  0   2.5    2.5    2.5    0    0    0
H        7.03585177      -0.90396766       2.70766521 0  0  0   2.44    2.44    2.44    0    0    0
C        7.66358918       3.69427613       0.60962624 0  0  0   6.943    6.943    6.943    0    0    0
C        8.09064900      -0.64278310       2.84684946 0  0  0   6.943    6.943    6.943    0    0    0
H        3.92281207       4.52410746       5.25351715 0  0  0   2.54    2.54    2.54    0    0    0
H        7.97726870       4.35847199       1.43154889 0  0  0   2.485    2.485    2.485    0    0    0
H        7.08160574       4.26319706      -0.11793960 0  0  0   2.439    2.439    2.439    0    0    0
H        8.55213901       3.26875868       0.11744523 0  0  0   2.484    2.484    2.484    0    0    0
H        4.63507138      -0.36179094       7.10388887 0  0  0   2.557    2.557    2.557    0    0    0
H        6.02255273      -0.63419428       6.02495604 0  0  0   2.524    2.524    2.524    0    0    0
H        5.20538755      -2.88784378       6.54787808 0  0  0   2.544    2.544    2.544    0    0    0
H        8.21835326      -0.12718180       3.80629627 0  0  0   2.479    2.479    2.479    0    0    0
H        8.42628640      -0.00561462       2.03188172 0  0  0   2.447    2.447    2.447    0    0    0
C       -1.29020141       6.24689503       4.33457847 0  0  0   6.768    6.768    6.768    0    0    0
H       -1.44640728       6.82918952       3.41386277 0  0  0   2.5    2.5    2.5    0    0    0
C       -0.86106958       4.15655060       2.92774089 0  0  0   6.591    6.591    6.591    0    0    0
H       -1.09314757       4.78900913       2.05328595 0  0  0   2.531    2.531    2.531    0    0    0
C       -0.44100019       2.11220875       1.48482125 0  0  0   6.604    6.604    6.604    0    0    0
H       -0.92029544       2.67473876       0.66549344 0  0  0   2.544    2.544    2.544    0    0    0
C       -1.71064028       7.07628900      -0.76944413 0  0  0   6.608    6.608    6.608    0    0    0
H       -2.44382071       6.48132096      -0.19998172 0  0  0   2.523    2.523    2.523    0    0    0
H       -0.49002568       7.74767182       0.97214916 0  0  0   2.496    2.496    2.496    0    0    0
C       -1.03369208       5.10086884      -2.30543139 0  0  0   6.616    6.616    6.616    0    0    0
C       -0.58402510       6.17108615      -1.28929796 0  0  0   6.611    6.611    6.611    0    0    0
H       -1.78889825       4.44583277      -1.83202574 0  0  0   2.526    2.526    2.526    0    0    0
H       -1.52366899       5.58135232      -3.16840549 0  0  0   2.536    2.536    2.536    0    0    0
H       -0.10501230       5.66779561      -0.43193261 0  0  0   2.493    2.493    2.493    0    0    0
H        0.18281725       6.80527182      -1.76346390 0  0  0   2.553    2.553    2.553    0    0    0
H       -4.04162630       5.84456375      -1.79207180 0  0  0   2.442    2.442    2.442    0    0    0
C        0.15035205       4.20561664      -2.82702849 0  0  0   6.612    6.612    6.612    0    0    0
H        0.67875765       3.77519317      -1.96179415 0  0  0   2.471    2.471    2.471    0    0    0
H        0.85978405       4.81180199      -3.41035224 0  0  0   2.543    2.543    2.543    0    0    0
C       -4.62046105       4.02344507      -4.14195977 0  0  0   6.761    6.761    6.761    0    0    0
H       -3.69821199       3.57802516      -3.73930301 0  0  0   2.48    2.48    2.48    0    0    0
C        2.51778160       6.39032045       0.61142013 0  0  0   6.74    6.74    6.74    0    0    0
H        1.87569650       5.80877483       1.29194462 0  0  0   2.541    2.541    2.541    0    0    0
H        1.86197386       6.95496543      -0.06836533 0  0  0   2.486    2.486    2.486    0    0    0
C        3.18259990       4.34207793      -0.93677239 0  0  0   6.601    6.601    6.601    0    0    0
C        3.50402070       5.53522158      -0.11695893 0  0  0   6.586    6.586    6.586    0    0    0
H        2.59314747       3.62110536      -0.34262675 0  0  0   2.574    2.574    2.574    0    0    0
H        2.54757287       4.65148285      -1.78223033 0  0  0   2.493    2.493    2.493    0    0    0
H        4.09710018       6.21893265      -0.75498932 0  0  0   2.586    2.586    2.586    0    0    0
H        4.95917476       4.28773729      -2.19011497 0  0  0   2.567    2.567    2.567    0    0    0
H        2.11640372       7.13656652      -2.77250321 0  0  0   2.48    2.48    2.48    0    0    0
H        2.86773616       5.17491261      -4.46551443 0  0  0   2.482    2.482    2.482    0    0    0
C       -1.09309238       8.21022075       0.17487963 0  0  0   6.77    6.77    6.77    0    0    0
C       -4.89311434       6.08567780      -2.44439229 0  0  0   6.762    6.762    6.762    0    0    0
C        2.82188679       7.76254107      -3.33935539 0  0  0   6.749    6.749    6.749    0    0    0
C        3.35651274       5.91236434      -5.12061480 0  0  0   6.752    6.752    6.752    0    0    0
C       -4.66117315       5.52244903      -3.86951370 0  0  0   6.586    6.586    6.586    0    0    0
C        2.84802085       7.35115597      -4.82682346 0  0  0   6.589    6.589    6.589    0    0    0
H       -0.85537279       6.91756536       5.09177845 0  0  0   2.523    2.523    2.523    0    0    0
H        3.06989326       7.12458892       1.22136880 0  0  0   2.527    2.527    2.527    0    0    0
H       -2.24282956       7.55401072      -1.60577510 0  0  0   2.518    2.518    2.518    0    0    0
H       -1.88209566       8.81709295       0.64425124 0  0  0   2.522    2.522    2.522    0    0    0
H       -0.43977079       8.87714191      -0.40954500 0  0  0   2.519    2.519    2.519    0    0    0
H       -5.46880580       5.93753631      -4.50253499 0  0  0   2.581    2.581    2.581    0    0    0
H       -3.73028325       5.96985235      -4.26311301 0  0  0   2.571    2.571    2.571    0    0    0
H       -4.99316810       7.18180852      -2.48950307 0  0  0   2.529    2.529    2.529    0    0    0
H        1.82123571       7.45042472      -5.22882296 0  0  0   2.55    2.55    2.55    0    0    0
H        3.46935206       8.06693881      -5.39240176 0  0  0   2.554    2.554    2.554    0    0    0
H        2.51308392       8.81293827      -3.22514675 0  0  0   2.534    2.534    2.534    0    0    0
H        3.81765706       7.64971506      -2.88337674 0  0  0   2.507    2.507    2.507    0    0    0
H        4.44363665       5.83938825      -4.95135528 0  0  0   2.524    2.524    2.524    0    0    0
C        0.00000000       0.00000000       0.00000000 0  0  0   6.776    6.776    6.776    0    0    0
H        5.07241499      -0.27815313       0.54819498 0  0  0   2.542    2.542    2.542    0    0    0
H        5.07209337      -4.31665816       1.54005311 0  0  0   2.529    2.529    2.529    0    0    0
C        3.87802469      -4.45902901      -0.25980723 0  0  0   6.599    6.599    6.599    0    0    0
C        4.13181031      -3.92283922       1.12244136 0  0  0   6.741    6.741    6.741    0    0    0
H        2.92957256      -4.05220388      -0.65232492 0  0  0   2.519    2.519    2.519    0    0    0
H        4.66716698      -4.03941979      -0.91471735 0  0  0   2.524    2.524    2.524    0    0    0
H        4.20756552      -2.82404022       1.10585691 0  0  0   2.483    2.483    2.483    0    0    0
H        3.32097664      -4.19182315       1.81830632 0  0  0   2.55    2.55    2.55    0    0    0
C        4.11944831      -6.35888367      -1.94481812 0  0  0   6.754    6.754    6.754    0    0    0
C        3.88743482      -5.99689873      -0.46584864 0  0  0   6.596    6.596    6.596    0    0    0
H        3.26460518      -6.05151801      -2.56952636 0  0  0   2.476    2.476    2.476    0    0    0
H        5.02127584      -5.85618699      -2.32963361 0  0  0   2.514    2.514    2.514    0    0    0
H        4.70725802      -6.43713039       0.13104825 0  0  0   2.552    2.552    2.552    0    0    0
H        4.53285348      -3.57752259       4.17620461 0  0  0   2.538    2.538    2.538    0    0    0
C        3.90528892       2.39371815      -2.30283380 0  0  0   6.75    6.75    6.75    0    0    0
H        4.71114186       1.91463819      -2.87954336 0  0  0   2.533    2.533    2.533    0    0    0
H        3.48488951       1.64395895      -1.61958839 0  0  0   2.481    2.481    2.481    0    0    0
H        6.41310495      -2.43799344      -2.12730600 0  0  0   2.484    2.484    2.484    0    0    0
H        7.18329998      -1.42200856      -0.00961404 0  0  0   2.493    2.493    2.493    0    0    0