521
Lattice="50 0 0 0 50 0 0 0 50" Properties=species:S:1:pos:R:3:force:R:3:axx:R:1:ayy:R:1:azz:R:1:axy:R:1:ayz:R:1:axz:R:1  energy=-29653.296152192506 pol="1760.59453 3.98138 -13.43652 3.97993 1903.1539 50.95476 -13.44112 50.77035 1803.9011" pbc="F F F"
C        0.36144416       7.29748156      -3.10343552 0  0  0   6.951    6.951    6.951    0    0    0
H        0.23396485       6.69431370      -4.01089189 0  0  0   2.477    2.477    2.477    0    0    0
H        1.33472960       7.05930689      -2.65429935 0  0  0   2.447    2.447    2.447    0    0    0
H       -0.42945529       7.06033808      -2.38248106 0  0  0   2.435    2.435    2.435    0    0    0
H        3.52296316       7.08174235      -3.85721433 0  0  0   2.461    2.461    2.461    0    0    0
H        0.20066171       5.56519791      -6.74954718 0  0  0   2.513    2.513    2.513    0    0    0
C        1.59402624       3.89697633      -6.54015616 0  0  0   6.588    6.588    6.588    0    0    0
C        1.28544538       5.38504355      -6.68426801 0  0  0   6.752    6.752    6.752    0    0    0
H        2.67532096       3.77688174      -6.35263453 0  0  0   2.512    2.512    2.512    0    0    0
H        1.07547804       3.50590415      -5.65119494 0  0  0   2.548    2.548    2.548    0    0    0
H        1.66488081       5.95111870      -5.81861084 0  0  0   2.52    2.52    2.52    0    0    0
C        1.19882191       3.05534416      -7.75578196 0  0  0   6.618    6.618    6.618    0    0    0
H        0.13131154       3.21553962      -7.98733391 0  0  0   2.5    2.5    2.5    0    0    0
H        5.29535547       1.96455004      -6.45348183 0  0  0   2.532    2.532    2.532    0    0    0
C       -3.22564880       7.50109382      -3.27753061 0  0  0   6.948    6.948    6.948    0    0    0
H       -3.96243925       6.80030862      -3.69334847 0  0  0   2.487    2.487    2.487    0    0    0
H       -2.80637764       7.07993195      -2.35322809 0  0  0   2.455    2.455    2.455    0    0    0
C       -3.47675430       3.32044947      -7.68534741 0  0  0   6.591    6.591    6.591    0    0    0
H       -4.02762455       2.99450785      -6.78520828 0  0  0   2.557    2.557    2.557    0    0    0
H       -1.81950445       4.22705710      -6.60544408 0  0  0   2.462    2.462    2.462    0    0    0
H       -1.87435306       1.87225534      -7.53203566 0  0  0   2.482    2.482    2.482    0    0    0
H       -0.75518595       8.30068834       1.87515529 0  0  0   2.463    2.463    2.463    0    0    0
H       -1.82790523       7.87692504      -0.37704098 0  0  0   2.565    2.565    2.565    0    0    0
H        0.73969492       7.43128582       0.14179431 0  0  0   2.487    2.487    2.487    0    0    0
H       -1.02490849       5.87209473       0.94243874 0  0  0   2.469    2.469    2.469    0    0    0
H       -2.48826940       4.42041650      -3.82803578 0  0  0   2.501    2.501    2.501    0    0    0
C       -1.50294227       2.80781467      -2.74699485 0  0  0   6.587    6.587    6.587    0    0    0
C       -1.60731026       4.26707491      -3.18081922 0  0  0   6.752    6.752    6.752    0    0    0
H       -0.62325111       2.66724055      -2.09361728 0  0  0   2.531    2.531    2.531    0    0    0
H       -2.38780633       2.53486746      -2.14823173 0  0  0   2.566    2.566    2.566    0    0    0
H       -1.70688767       4.94326930      -2.31791839 0  0  0   2.518    2.518    2.518    0    0    0
H       -0.70927332       4.56225694      -3.74750450 0  0  0   2.5    2.5    2.5    0    0    0
C       -1.40534611       1.88854597      -3.96354070 0  0  0   6.602    6.602    6.602    0    0    0
H       -0.52303796       2.16253472      -4.56810774 0  0  0   2.562    2.562    2.562    0    0    0
H       -2.29039691       2.06060690      -4.60222566 0  0  0   2.53    2.53    2.53    0    0    0
H        2.05577290       4.00616055      -3.54968793 0  0  0   2.497    2.497    2.497    0    0    0
H        1.85008974       3.15676533      -2.00248651 0  0  0   2.533    2.533    2.533    0    0    0
C        2.60014843       1.19062050      -3.73405446 0  0  0   6.602    6.602    6.602    0    0    0
H        1.93378538       1.53086174      -4.54413689 0  0  0   2.517    2.517    2.517    0    0    0
H       -5.16435286       3.51288861      -4.65175530 0  0  0   2.572    2.572    2.572    0    0    0
H        6.53048734       5.52487075      -6.32634305 0  0  0   2.535    2.535    2.535    0    0    0
C        5.64949295       2.31765889      -7.43643493 0  0  0   6.605    6.605    6.605    0    0    0
C       -2.58973409       4.51573647      -7.33754817 0  0  0   6.75    6.75    6.75    0    0    0
C       -2.67288570       2.14221615      -8.24621955 0  0  0   6.611    6.611    6.611    0    0    0
H       -3.71626708       8.45870867      -3.05752497 0  0  0   2.487    2.487    2.487    0    0    0
H       -2.42220572       7.65305950      -4.01000159 0  0  0   2.433    2.433    2.433    0    0    0
H       -4.23661820       3.62868915      -8.42371649 0  0  0   2.56    2.56    2.56    0    0    0
H       -3.17301572       5.34174086      -6.90078140 0  0  0   2.528    2.528    2.528    0    0    0
H       -2.08136714       4.90269012      -8.23529303 0  0  0   2.529    2.529    2.529    0    0    0
H       -2.16586045       2.46277653      -9.17201475 0  0  0   2.553    2.553    2.553    0    0    0
H        0.32575966       8.36456825      -3.35855295 0  0  0   2.499    2.499    2.499    0    0    0
H       -2.00779900       9.51259771       1.51455156 0  0  0   2.547    2.547    2.547    0    0    0
H        1.75642903       5.80026628      -7.58781664 0  0  0   2.529    2.529    2.529    0    0    0
H        1.76464186       3.39199349      -8.64195246 0  0  0   2.574    2.574    2.574    0    0    0
H        6.83699027       3.93558827      -8.23953170 0  0  0   2.557    2.557    2.557    0    0    0
H        4.94275253       4.97383258      -6.91117223 0  0  0   2.498    2.498    2.498    0    0    0
H        4.74447416       2.61238795      -7.99780878 0  0  0   2.522    2.522    2.522    0    0    0
C        4.44389163       7.00295385      -3.26303760 0  0  0   6.945    6.945    6.945    0    0    0
H        4.22991450       6.52228118      -2.29680060 0  0  0   2.464    2.464    2.464    0    0    0
H        5.62833077       4.28712186      -5.42583736 0  0  0   2.493    2.493    2.493    0    0    0
H        6.04285301       5.26973327       0.61651886 0  0  0   2.461    2.461    2.461    0    0    0
H        5.99977150       3.85051882      -3.02363182 0  0  0   2.496    2.496    2.496    0    0    0
C        7.33570900       2.18301286      -2.57573864 0  0  0   6.592    6.592    6.592    0    0    0
C        7.04304919       3.67826808      -2.71177881 0  0  0   6.752    6.752    6.752    0    0    0
H        8.36575909       2.04941300      -2.20310909 0  0  0   2.523    2.523    2.523    0    0    0
H        6.66333689       1.77312329      -1.80395453 0  0  0   2.534    2.534    2.534    0    0    0
H        7.19055934       4.19649769      -1.74738389 0  0  0   2.518    2.518    2.518    0    0    0
C        7.16840783       1.38147898      -3.87271922 0  0  0   6.612    6.612    6.612    0    0    0
H        6.14959084       1.52735589      -4.26857372 0  0  0   2.507    2.507    2.507    0    0    0
C        2.17117851       8.01096017       1.65171562 0  0  0   6.75    6.75    6.75    0    0    0
H        3.24616677       7.90167469       1.86657688 0  0  0   2.521    2.521    2.521    0    0    0
H        1.60978974       7.60577095       2.50916874 0  0  0   2.51    2.51    2.51    0    0    0
C        2.07269909       5.75671462       0.51947215 0  0  0   6.746    6.746    6.746    0    0    0
C        1.80391525       7.25553073       0.37526453 0  0  0   6.589    6.589    6.589    0    0    0
H        1.51944104       5.33926846       1.37700137 0  0  0   2.531    2.531    2.531    0    0    0
H        1.77406199       5.19455010      -0.37945904 0  0  0   2.494    2.494    2.494    0    0    0
H        2.38573939       7.65451429      -0.47444795 0  0  0   2.544    2.544    2.544    0    0    0
H        3.14651918       5.57441924       0.68629740 0  0  0   2.521    2.521    2.521    0    0    0
C        2.59545242       3.51690658      -2.72510659 0  0  0   6.744    6.744    6.744    0    0    0
H        3.20859126       4.27613534      -2.21860364 0  0  0   2.513    2.513    2.513    0    0    0
C        3.44990013       2.36317105      -3.24065242 0  0  0   6.592    6.592    6.592    0    0    0
H        4.11488563       2.00804236      -2.43639144 0  0  0   2.494    2.494    2.494    0    0    0
H        4.10211979       2.71464789      -4.05571018 0  0  0   2.579    2.579    2.579    0    0    0
C        3.34929717       5.69672515       4.31015871 0  0  0   6.738    6.738    6.738    0    0    0
H        7.48604660       3.23522993      -6.74862067 0  0  0   2.548    2.548    2.548    0    0    0
H        4.76972016       4.17093414       4.93341198 0  0  0   2.529    2.529    2.529    0    0    0
H        3.90041962       5.96879294       3.39445507 0  0  0   2.501    2.501    2.501    0    0    0
H        5.15625450       2.65985496       0.08052476 0  0  0   2.526    2.526    2.526    0    0    0
C        4.58148071       0.77685637       1.01539595 0  0  0   6.583    6.583    6.583    0    0    0
C        4.37965532       2.26771119       0.75430451 0  0  0   6.75    6.75    6.75    0    0    0
H        5.56171575       0.61825704       1.49055472 0  0  0   2.54    2.54    2.54    0    0    0
H        3.82794032       0.42115973       1.73713356 0  0  0   2.579    2.579    2.579    0    0    0
H        3.40275010       2.45877944       0.28224673 0  0  0   2.467    2.467    2.467    0    0    0
H        4.42472016       2.85295372       1.68698563 0  0  0   2.536    2.536    2.536    0    0    0
H        5.23078935       0.27875842      -0.99242330 0  0  0   2.571    2.571    2.571    0    0    0
H        3.49133313       0.08900250      -0.71620356 0  0  0   2.495    2.495    2.495    0    0    0
C        8.53999251       2.04050187       0.87786244 0  0  0   6.762    6.762    6.762    0    0    0
H        7.46781461       1.79778770       0.95025506 0  0  0   2.452    2.452    2.452    0    0    0
C        0.70588400       1.21897135       0.52120421 0  0  0   6.592    6.592    6.592    0    0    0
H        1.49602300       0.92127867       1.22959542 0  0  0   2.494    2.494    2.494    0    0    0
H        1.22513039       1.61236939      -0.36819017 0  0  0   2.586    2.586    2.586    0    0    0
H        6.34721059       1.61199276       5.54014709 0  0  0   2.532    2.532    2.532    0    0    0
C        6.56172548      -0.31353701       4.52080711 0  0  0   6.593    6.593    6.593    0    0    0
H        7.10725798       0.09506383       3.65024353 0  0  0   2.542    2.542    2.542    0    0    0
C        6.77817062       6.08432946       0.68065090 0  0  0   6.941    6.941    6.941    0    0    0
C        5.87826410       4.64397263      -6.43541032 0  0  0   6.748    6.748    6.748    0    0    0
C        6.55028732       3.54176154      -7.24895579 0  0  0   6.595    6.595    6.595    0    0    0
C        9.39217709       0.79825275       0.53816686 0  0  0   6.597    6.597    6.597    0    0    0
H        6.25407254       7.02582617       0.89621909 0  0  0   2.476    2.476    2.476    0    0    0
H        7.32611768       6.16911618      -0.26632577 0  0  0   2.465    2.465    2.465    0    0    0
H        7.48409287       5.86727520       1.49482205 0  0  0   2.471    2.471    2.471    0    0    0
H        7.70411958       4.15892074      -3.44989272 0  0  0   2.537    2.537    2.537    0    0    0
H        7.86156969       1.77042062      -4.63972729 0  0  0   2.559    2.559    2.559    0    0    0
H        8.64815832       2.81758265       0.10400644 0  0  0   2.504    2.504    2.504    0    0    0
H        8.84025480       2.48707390       1.83869419 0  0  0   2.534    2.534    2.534    0    0    0
H        9.98123755       0.48887482       1.42152702 0  0  0   2.567    2.567    2.567    0    0    0
H       10.12702428       1.06066404      -0.24520586 0  0  0   2.571    2.571    2.571    0    0    0
H        7.33046833      -0.65555978       5.23756590 0  0  0   2.562    2.562    2.562    0    0    0
H        4.85922661       8.00579468      -3.09295849 0  0  0   2.482    2.482    2.482    0    0    0
H        5.16668107       6.38935632      -3.82020053 0  0  0   2.459    2.459    2.459    0    0    0
H        1.94399267       9.08643046       1.57671427 0  0  0   2.538    2.538    2.538    0    0    0
C       -2.33300644       7.57284025       0.55395869 0  0  0   6.584    6.584    6.584    0    0    0
C       -5.63548163       3.10865866      -3.73878106 0  0  0   6.589    6.589    6.589    0    0    0
C       -5.75647239       0.77303372      -4.72240466 0  0  0   6.604    6.604    6.604    0    0    0
H        3.61094375       6.42773437       5.09277756 0  0  0   2.545    2.545    2.545    0    0    0
H        1.94379611       0.85109139      -2.91373291 0  0  0   2.57    2.57    2.57    0    0    0
H       -5.20760113       1.13973804      -5.60672788 0  0  0   2.564    2.564    2.564    0    0    0
C        1.44852350       1.55645360      -7.54468737 0  0  0   6.602    6.602    6.602    0    0    0
H        2.50366926       1.39786886      -7.25439348 0  0  0   2.51    2.51    2.51    0    0    0
H        0.83461532       1.20844778      -6.69891720 0  0  0   2.559    2.559    2.559    0    0    0
C        1.25399733      -0.77667180      -8.62368860 0  0  0   6.742    6.742    6.742    0    0    0
H        2.27541483      -1.04876285      -8.32053453 0  0  0   2.486    2.486    2.486    0    0    0
H        0.55828896      -1.16040058      -7.85987849 0  0  0   2.541    2.541    2.541    0    0    0
H        5.05924882      -0.38678767      -7.34488149 0  0  0   2.511    2.511    2.511    0    0    0
H       -4.02943009       0.57063288      -7.62118523 0  0  0   2.549    2.549    2.549    0    0    0
H       -1.94115216      -0.56847129      -8.42192410 0  0  0   2.462    2.462    2.462    0    0    0
C       -1.32563868       0.40408550      -3.61947141 0  0  0   6.6    6.6    6.6    0    0    0
H       -0.38153108       0.19780210      -3.08310117 0  0  0   2.517    2.517    2.517    0    0    0
H       -2.14411702       0.13265861      -2.92896686 0  0  0   2.568    2.568    2.568    0    0    0
C       -1.33279537      -1.95618411      -4.54410255 0  0  0   6.602    6.602    6.602    0    0    0
C       -1.41350233      -0.46667998      -4.86961049 0  0  0   6.598    6.598    6.598    0    0    0
H       -0.34354390      -2.17253166      -4.10646589 0  0  0   2.497    2.497    2.497    0    0    0
H       -2.08086550      -2.19629080      -3.76657150 0  0  0   2.563    2.563    2.563    0    0    0
H       -0.60262092      -0.18889016      -5.56398253 0  0  0   2.577    2.577    2.577    0    0    0
H       -2.36263856      -0.25089902      -5.39486542 0  0  0   2.539    2.539    2.539    0    0    0
C       -1.40061783      -4.34464305      -5.47004897 0  0  0   6.608    6.608    6.608    0    0    0
C       -1.56977841      -2.85051375      -5.75887298 0  0  0   6.602    6.602    6.602    0    0    0
H       -0.39162214      -4.53265197      -5.05868574 0  0  0   2.485    2.485    2.485    0    0    0
H       -2.11815906      -4.66009825      -4.69113458 0  0  0   2.549    2.549    2.549    0    0    0
H       -0.87116771      -2.56902083      -6.56562132 0  0  0   2.582    2.582    2.582    0    0    0
H       -2.58841639      -2.66810978      -6.14764866 0  0  0   2.551    2.551    2.551    0    0    0
C       -1.60194676      -5.18653747      -6.73159434 0  0  0   6.594    6.594    6.594    0    0    0
H       -0.43053209      -6.91937699      -6.12098511 0  0  0   2.471    2.471    2.471    0    0    0
H       -0.87961118      -4.85510223      -7.50072945 0  0  0   2.561    2.561    2.561    0    0    0
H        4.62243827      -6.00783335       1.56544019 0  0  0   2.468    2.468    2.468    0    0    0
C        2.61346563      -1.20838498      -4.63048379 0  0  0   6.598    6.598    6.598    0    0    0
H        2.04620560      -1.55941481      -3.74903064 0  0  0   2.575    2.575    2.575    0    0    0
H        1.86284253      -0.92683117      -5.39249125 0  0  0   2.518    2.518    2.518    0    0    0
H        4.02284774       0.35736673      -5.11716756 0  0  0   2.592    2.592    2.592    0    0    0
C        2.65376595      -3.61051400      -5.47379625 0  0  0   6.601    6.601    6.601    0    0    0
H        2.12856879      -3.93713176      -4.55675916 0  0  0   2.559    2.559    2.559    0    0    0
H        1.86961480      -3.35951902      -6.21121925 0  0  0   2.521    2.521    2.521    0    0    0
H        4.00095529      -2.02333421      -6.07249594 0  0  0   2.579    2.579    2.579    0    0    0
C        3.48902630      -4.77474684      -6.01357056 0  0  0   6.597    6.597    6.597    0    0    0
H        2.06128011      -6.30642684      -5.43668840 0  0  0   2.525    2.525    2.525    0    0    0
H        4.94016998      -1.15299648       3.36733405 0  0  0   2.487    2.487    2.487    0    0    0
C       -5.79584822      -1.59030671      -5.67571181 0  0  0   6.748    6.748    6.748    0    0    0
H        7.25719751       0.87845430      -7.63256472 0  0  0   2.546    2.546    2.546    0    0    0
H       -5.25922300      -1.30504455      -6.59807026 0  0  0   2.532    2.532    2.532    0    0    0
H        7.12694387      -5.32742052       3.23767302 0  0  0   2.557    2.557    2.557    0    0    0
H       -0.79935008      -2.04211664      -1.64730404 0  0  0   2.521    2.521    2.521    0    0    0
H       -0.88407674      -4.36109237      -2.58330892 0  0  0   2.515    2.515    2.515    0    0    0
H        5.97641816      -7.11139474       1.89697589 0  0  0   2.531    2.531    2.531    0    0    0
C        0.58059254      -5.93809541      -2.33305285 0  0  0   6.6    6.6    6.6    0    0    0
H       -1.08063631      -6.73060994      -3.46272406 0  0  0   2.497    2.497    2.497    0    0    0
H        1.18087714      -5.64142624      -3.21004736 0  0  0   2.582    2.582    2.582    0    0    0
C        0.42221233      -8.28105398      -3.31992584 0  0  0   6.749    6.749    6.749    0    0    0
C       -1.43841574      -6.68786046      -6.50011460 0  0  0   6.756    6.756    6.756    0    0    0
C        5.44023267      -0.06393707      -8.32634539 0  0  0   6.744    6.744    6.744    0    0    0
C       -3.53112779       0.90957872      -8.54542328 0  0  0   6.591    6.591    6.591    0    0    0
C       -2.72217688      -0.24949521      -9.12732310 0  0  0   6.753    6.753    6.753    0    0    0
C        2.61525624      -5.98425213      -6.33341773 0  0  0   6.744    6.744    6.744    0    0    0
C        1.11857446       0.73544899      -8.79569189 0  0  0   6.6    6.6    6.6    0    0    0
H       -0.26509199      -9.09249233      -3.60799148 0  0  0   2.525    2.525    2.525    0    0    0
H        0.97780731      -7.97728342      -4.21943906 0  0  0   2.535    2.535    2.535    0    0    0
H       -4.33461119       1.18676046      -9.25035719 0  0  0   2.563    2.563    2.563    0    0    0
H       -3.36393543      -1.12116106      -9.34148648 0  0  0   2.531    2.531    2.531    0    0    0
H       -2.23062709       0.04453208     -10.06823993 0  0  0   2.526    2.526    2.526    0    0    0
H        1.03348574      -1.29416726      -9.57056029 0  0  0   2.532    2.532    2.532    0    0    0
H        1.78134680       1.05524107      -9.61908569 0  0  0   2.575    2.575    2.575    0    0    0
H        0.08808720       0.97233682      -9.11414280 0  0  0   2.506    2.506    2.506    0    0    0
H       -2.17063693      -7.05755626      -5.76358403 0  0  0   2.51    2.51    2.51    0    0    0
H       -1.58646523      -7.25316624      -7.43550468 0  0  0   2.533    2.533    2.533    0    0    0
H       -2.60804761      -4.98482680      -7.14128534 0  0  0   2.559    2.559    2.559    0    0    0
H        6.66710994       1.51050155      -9.16816296 0  0  0   2.558    2.558    2.558    0    0    0
H        5.98185065      -0.91166561      -8.78093862 0  0  0   2.533    2.533    2.533    0    0    0
H        4.56843164       0.16621110      -8.96091244 0  0  0   2.499    2.499    2.499    0    0    0
H        1.87410758      -5.73281971      -7.10946233 0  0  0   2.499    2.499    2.499    0    0    0
H        3.21091493      -6.83659161      -6.68836657 0  0  0   2.531    2.531    2.531    0    0    0
H        4.02751126      -4.44823287      -6.92468505 0  0  0   2.562    2.562    2.562    0    0    0
C        7.42717685      -0.11917337      -3.67755406 0  0  0   6.602    6.602    6.602    0    0    0
H        8.45772845      -0.25519757      -3.30731315 0  0  0   2.538    2.538    2.538    0    0    0
H        6.75714103      -0.49830777      -2.88532978 0  0  0   2.565    2.565    2.565    0    0    0
C        7.22685403      -0.96016915      -4.94333793 0  0  0   6.598    6.598    6.598    0    0    0
H        6.86480145      -2.89930466      -4.01036883 0  0  0   2.533    2.533    2.533    0    0    0
H        6.18355451      -0.86812763      -5.28438266 0  0  0   2.495    2.495    2.495    0    0    0
C        3.44182264       0.01954831      -4.24358272 0  0  0   6.602    6.602    6.602    0    0    0
H        4.17473984      -0.27038148      -3.47140756 0  0  0   2.512    2.512    2.512    0    0    0
C        3.47361076      -2.35615307      -5.16231870 0  0  0   6.606    6.606    6.606    0    0    0
H        4.25361546      -2.60071376      -4.41927882 0  0  0   2.519    2.519    2.519    0    0    0
H        4.25784488      -5.05123210      -5.27179273 0  0  0   2.521    2.521    2.521    0    0    0
C        4.68703592      -1.56614097       0.01140175 0  0  0   6.598    6.598    6.598    0    0    0
C        4.48389368      -0.07174501      -0.25691883 0  0  0   6.605    6.605    6.605    0    0    0
H        5.67369291      -1.72332124       0.48006975 0  0  0   2.525    2.525    2.525    0    0    0
H        3.93533141      -1.89843658       0.74640762 0  0  0   2.585    2.585    2.585    0    0    0
C        4.78206713      -3.93850315      -0.88874480 0  0  0   6.599    6.599    6.599    0    0    0
C        4.59543076      -2.45879305      -1.23201007 0  0  0   6.6    6.6    6.6    0    0    0
H        5.78224090      -4.09200392      -0.44964514 0  0  0   2.537    2.537    2.537    0    0    0
H        4.05512704      -4.21587512      -0.10456712 0  0  0   2.578    2.578    2.578    0    0    0
H        5.36337309      -2.15060037      -1.96423534 0  0  0   2.576    2.576    2.576    0    0    0
H        3.61511855      -2.32066486      -1.72476274 0  0  0   2.508    2.508    2.508    0    0    0
C        4.84167725      -6.34805771      -1.64992571 0  0  0   6.59    6.59    6.59    0    0    0
C        4.59987219      -4.89485691      -2.06851772 0  0  0   6.605    6.605    6.605    0    0    0
H        5.90415512      -6.46757934      -1.37216216 0  0  0   2.551    2.551    2.551    0    0    0
H        4.25383949      -6.56729777      -0.74175606 0  0  0   2.552    2.552    2.552    0    0    0
H        5.28736039      -4.62743159      -2.89156193 0  0  0   2.578    2.578    2.578    0    0    0
H        3.57529203      -4.78930797      -2.46927069 0  0  0   2.496    2.496    2.496    0    0    0
C        4.46382789      -7.35550194      -2.73222575 0  0  0   6.754    6.754    6.754    0    0    0
H        3.39076137      -7.28577178      -2.97207054 0  0  0   2.469    2.469    2.469    0    0    0
C        8.55858862      -0.40094598       0.07009110 0  0  0   6.612    6.612    6.612    0    0    0
H        7.82962833      -0.66143605       0.86007972 0  0  0   2.55    2.55    2.55    0    0    0
H        7.96561277      -0.11286909      -0.81595512 0  0  0   2.468    2.468    2.468    0    0    0
H        7.80050745      -3.07951740      -0.11252884 0  0  0   2.517    2.517    2.517    0    0    0
H        8.13162896      -2.51101325      -1.76816376 0  0  0   2.462    2.462    2.462    0    0    0
C        0.74581306      -1.15924101      -0.42876099 0  0  0   6.602    6.602    6.602    0    0    0
H        1.31736875      -0.79869954      -1.29890923 0  0  0   2.579    2.579    2.579    0    0    0
C        0.71225169      -3.55729356      -1.36700823 0  0  0   6.599    6.599    6.599    0    0    0
H        1.39718928      -3.90736151      -0.57472757 0  0  0   2.516    2.516    2.516    0    0    0
H        1.34524255      -3.24309948      -2.21616732 0  0  0   2.586    2.586    2.586    0    0    0
H        1.29811290      -6.28011080      -1.56839988 0  0  0   2.515    2.515    2.515    0    0    0
H        1.14525768      -8.69353412      -2.59814338 0  0  0   2.506    2.506    2.506    0    0    0
C        5.55939827      -3.85656062       3.13506693 0  0  0   6.606    6.606    6.606    0    0    0
C        6.47197414      -2.67474511       3.47717576 0  0  0   6.604    6.604    6.604    0    0    0
H        4.77487384      -3.52211584       2.43487294 0  0  0   2.49    2.49    2.49    0    0    0
H        7.25728478      -3.01927626       4.17608965 0  0  0   2.569    2.569    2.569    0    0    0
H        6.99419836      -2.34399726       2.56118836 0  0  0   2.565    2.565    2.565    0    0    0
C        6.31569531      -5.04642217       2.54365799 0  0  0   6.592    6.592    6.592    0    0    0
H        6.79907408      -4.75322133       1.59849681 0  0  0   2.554    2.554    2.554    0    0    0
C        7.54885951      -2.44286867      -4.74252582 0  0  0   6.744    6.744    6.744    0    0    0
C        8.59946870      -2.79405111      -0.81127004 0  0  0   6.748    6.748    6.748    0    0    0
C        6.33895778       1.16443779      -8.17327254 0  0  0   6.598    6.598    6.598    0    0    0
C        9.41628813      -1.63038919      -0.25304895 0  0  0   6.594    6.594    6.594    0    0    0
H        8.57764160      -2.58496164      -4.37103132 0  0  0   2.521    2.521    2.521    0    0    0
H        7.44939518      -3.00305384      -5.68740285 0  0  0   2.523    2.523    2.523    0    0    0
H        7.86373757      -0.56063931      -5.75140145 0  0  0   2.552    2.552    2.552    0    0    0
H        4.66889330      -8.38621098      -2.40456688 0  0  0   2.538    2.538    2.538    0    0    0
H        5.03100767      -7.18258540      -3.66036109 0  0  0   2.523    2.523    2.523    0    0    0
H        9.22296595      -3.68379297      -0.98840749 0  0  0   2.543    2.543    2.543    0    0    0
H        9.93998872      -1.95157072       0.66451148 0  0  0   2.567    2.567    2.567    0    0    0
H       10.20187520      -1.35690069      -0.97948052 0  0  0   2.571    2.571    2.571    0    0    0
H        1.48746099      -1.46655686       0.32758907 0  0  0   2.508    2.508    2.508    0    0    0
C       -1.83616754       8.44015327       1.70928531 0  0  0   6.761    6.761    6.761    0    0    0
H       -2.36043865       8.18058718       2.64153552 0  0  0   2.507    2.507    2.507    0    0    0
C       -2.09964670       6.08478690       0.81061061 0  0  0   6.746    6.746    6.746    0    0    0
H       -4.73546493       3.05779190       7.60757796 0  0  0   2.484    2.484    2.484    0    0    0
H       -2.62092140       5.75667051       1.72227329 0  0  0   2.529    2.529    2.529    0    0    0
H       -2.47018500       5.46565287      -0.02242184 0  0  0   2.542    2.542    2.542    0    0    0
H       -3.40992737       7.75557749       0.40278537 0  0  0   2.516    2.516    2.516    0    0    0
H       -5.34764927       6.93899848      -0.60215350 0  0  0   2.451    2.451    2.451    0    0    0
H       -5.78754999       6.12794171       0.93218520 0  0  0   2.449    2.449    2.449    0    0    0
C       -6.36283426       4.23340483      -2.99921878 0  0  0   6.753    6.753    6.753    0    0    0
H       -5.66884185       5.04307852      -2.72690510 0  0  0   2.493    2.493    2.493    0    0    0
H       -6.81716342       3.85570908      -2.07033071 0  0  0   2.506    2.506    2.506    0    0    0
C       -6.54617030       1.93231952      -4.10438258 0  0  0   6.611    6.611    6.611    0    0    0
H       -3.71600963       1.92681482       8.55730472 0  0  0   2.443    2.443    2.443    0    0    0
H       -7.06320738       1.58162235      -3.19740028 0  0  0   2.522    2.522    2.522    0    0    0
H       -4.81264204       2.73609002      -3.10669512 0  0  0   2.513    2.513    2.513    0    0    0
H       -3.68545789       3.67836836       8.93430068 0  0  0   2.481    2.481    2.481    0    0    0
C       -4.91890826       5.39066991       4.59090343 0  0  0   6.938    6.938    6.938    0    0    0
H       -4.20163034       5.44985967       3.76102247 0  0  0   2.473    2.473    2.473    0    0    0
H       -4.81477621       4.42000907       5.09382034 0  0  0   2.459    2.459    2.459    0    0    0
H       -5.67896800       2.73171117       0.64551638 0  0  0   2.502    2.502    2.502    0    0    0
C       -4.09386393       1.26766863       0.49638893 0  0  0   6.593    6.593    6.593    0    0    0
C       -4.58949159       2.70914162       0.49285892 0  0  0   6.748    6.748    6.748    0    0    0
H       -2.99872229       1.23089785       0.39251680 0  0  0   2.52    2.52    2.52    0    0    0
H       -4.33300119       0.82198228       1.47555153 0  0  0   2.558    2.558    2.558    0    0    0
H       -4.13060533       3.29781446       1.30314549 0  0  0   2.533    2.533    2.533    0    0    0
H       -4.37170776       3.20492512      -0.46779351 0  0  0   2.51    2.51    2.51    0    0    0
C       -4.71736507       0.43678483      -0.62676124 0  0  0   6.611    6.611    6.611    0    0    0