166
Lattice="50 0 0 0 50 0 0 0 50" Properties=species:S:1:pos:R:3:force:R:3:axx:R:1:ayy:R:1:azz:R:1:axy:R:1:ayz:R:1:axz:R:1 energy=-9343.54445552015 pol="548.89635 -1.7082 -4.90483 -1.71249 576.14069 -31.89747 -4.91821 -31.92913 592.28515" pbc="F F F"
H        3.01105625       4.28070418      -2.29004089 0  0  0   2.46    2.46    2.46    0    0    0
H        1.76489688       5.55221575      -0.14963767 0  0  0   2.508    2.508    2.508    0    0    0
C        3.91203132       2.64357147      -0.24789067 0  0  0   6.613    6.613    6.613    0    0    0
H        2.81652063       2.73090769      -0.34080631 0  0  0   2.471    2.471    2.471    0    0    0
H        4.22789116       1.80087022      -0.88837087 0  0  0   2.542    2.542    2.542    0    0    0
H        1.40090258       3.83288693       1.56420544 0  0  0   2.518    2.518    2.518    0    0    0
C        4.27873333       2.34404761       1.21345207 0  0  0   6.612    6.612    6.612    0    0    0
H        4.63747407       0.20174404       0.98434830 0  0  0   2.549    2.549    2.549    0    0    0
H        3.71254922       3.01703270       1.88019728 0  0  0   2.555    2.555    2.555    0    0    0
H        2.04769804       2.36096425      -2.82582195 0  0  0   2.5    2.5    2.5    0    0    0
H        1.86318574       0.86865809      -0.62609739 0  0  0   2.505    2.505    2.505    0    0    0
C        4.10143010       4.13038686      -2.25106014 0  0  0   6.757    6.757    6.757    0    0    0
C        4.56383457       3.93106657      -0.78936414 0  0  0   6.599    6.599    6.599    0    0    0
H        4.57405237       5.00861019      -2.71858316 0  0  0   2.529    2.529    2.529    0    0    0
H        4.35409630       3.24887800      -2.86093391 0  0  0   2.518    2.518    2.518    0    0    0
H        4.27239998       4.79896615      -0.17404374 0  0  0   2.552    2.552    2.552    0    0    0
H        5.66290305       3.84693069      -0.74479948 0  0  0   2.542    2.542    2.542    0    0    0
H        5.34860574       2.56079651       1.38106007 0  0  0   2.564    2.564    2.564    0    0    0
C        0.66639711       5.58367491      -0.24075997 0  0  0   6.721    6.721    6.721    0    0    0
H        0.38002891       4.84424896      -1.00591115 0  0  0   2.544    2.544    2.544    0    0    0
C        0.30613533       3.98105392       1.63874196 0  0  0   6.603    6.603    6.603    0    0    0
C        0.01718351       5.32901153       1.02642788 0  0  0   6.575    6.575    6.575    0    0    0
H       -0.12770219       3.16598299       1.03954390 0  0  0   2.549    2.549    2.549    0    0    0
H       -1.07566869       5.45471164       0.92197876 0  0  0   2.55    2.55    2.55    0    0    0
C       -3.50517834       4.06085103      -0.73789893 0  0  0   6.589    6.589    6.589    0    0    0
C       -2.82342741       4.28482475      -2.11185554 0  0  0   6.755    6.755    6.755    0    0    0
H       -3.31652048       4.93276888      -0.08754051 0  0  0   2.565    2.565    2.565    0    0    0
H       -1.73068504       4.35239282      -1.99815924 0  0  0   2.486    2.486    2.486    0    0    0
H       -3.04252022       3.45193076      -2.79799543 0  0  0   2.526    2.526    2.526    0    0    0
C       -3.05955212       2.81052611      -0.05908346 0  0  0   6.602    6.602    6.602    0    0    0
H       -2.00392874       2.89512660       0.23871289 0  0  0   2.502    2.502    2.502    0    0    0
H       -3.12210310       1.96207317      -0.76462769 0  0  0   2.533    2.533    2.533    0    0    0
C        0.39786751       3.17874196      -3.94336292 0  0  0   6.753    6.753    6.753    0    0    0
H        0.27929635       4.08222517      -3.32541265 0  0  0   2.545    2.545    2.545    0    0    0
C        0.29983049       1.51692852      -1.96319626 0  0  0   6.589    6.589    6.589    0    0    0
H        0.03308320       2.37836857      -1.32219792 0  0  0   2.578    2.578    2.578    0    0    0
H        0.40347315       6.57829052      -0.63797343 0  0  0   2.537    2.537    2.537    0    0    0
H       -4.59748903       4.02260542      -0.90033054 0  0  0   2.554    2.554    2.554    0    0    0
H       -3.17472615       5.21587705      -2.58371410 0  0  0   2.537    2.537    2.537    0    0    0
H        0.33438535       6.11129506       1.74133116 0  0  0   2.567    2.567    2.567    0    0    0
H       -5.56378769       1.67985654      -1.87672680 0  0  0   2.436    2.436    2.436    0    0    0
H       -7.24029315       1.66043496      -1.23922967 0  0  0   2.499    2.499    2.499    0    0    0
C        4.00611304       0.87863213       1.58444480 0  0  0   6.611    6.611    6.611    0    0    0
H        2.95944294       0.66521329       1.31674528 0  0  0   2.487    2.487    2.487    0    0    0
C        0.81238787       2.80335057       3.78375832 0  0  0   6.59    6.59    6.59    0    0    0
H        0.79644031       1.87680230       3.17845513 0  0  0   2.524    2.524    2.524    0    0    0
H        1.85738728       3.16245993       3.74994889 0  0  0   2.559    2.559    2.559    0    0    0
C        3.50542448      -0.67777640       3.48935243 0  0  0   6.751    6.751    6.751    0    0    0
C        4.18902366       0.61083376       3.07432348 0  0  0   6.596    6.596    6.596    0    0    0
H        3.66274224      -0.89707293       4.55768263 0  0  0   2.528    2.528    2.528    0    0    0
H        2.41855127      -0.61500173       3.32345651 0  0  0   2.467    2.467    2.467    0    0    0
H        3.75342555       1.44356022       3.65452656 0  0  0   2.519    2.519    2.519    0    0    0
C        0.46977847       2.43093891       5.20819784 0  0  0   6.599    6.599    6.599    0    0    0
H        1.19120982       0.34068012       5.30041400 0  0  0   2.471    2.471    2.471    0    0    0
H        3.89005400      -1.53479246       2.91359217 0  0  0   2.51    2.51    2.51    0    0    0
C       -0.27712314      -1.47530112       2.11924496 0  0  0   6.752    6.752    6.752    0    0    0
H       -0.40267220      -0.61434647       2.79527411 0  0  0   2.52    2.52    2.52    0    0    0
H        1.55042510      -0.81462807       1.25004882 0  0  0   2.523    2.523    2.523    0    0    0
H       -2.07311431      -2.05944679       4.79593360 0  0  0   2.473    2.473    2.473    0    0    0
H        1.68690161      -3.15121866       4.80824520 0  0  0   2.484    2.484    2.484    0    0    0
H       -0.49043266      -1.70927041       5.56359649 0  0  0   2.477    2.477    2.477    0    0    0
C        1.29931782       1.27705409       5.86950941 0  0  0   6.764    6.764    6.764    0    0    0
H       -2.00741632      -1.48883087       6.49604352 0  0  0   2.481    2.481    2.481    0    0    0
H        5.26295048       0.57988571       3.32552517 0  0  0   2.566    2.566    2.566    0    0    0
H        0.94882695       1.09762263       6.89805105 0  0  0   2.505    2.505    2.505    0    0    0
H        2.37028002       1.53014990       5.90826053 0  0  0   2.512    2.512    2.512    0    0    0
H        0.55754838       3.32689064       5.84893876 0  0  0   2.568    2.568    2.568    0    0    0
C       -1.54453592      -1.40601276       5.50341713 0  0  0   6.939    6.939    6.939    0    0    0
C        0.00000000       0.00000000       0.00000000 0  0  0   6.598    6.598    6.598    0    0    0
C       -0.06649941       3.81278235       3.11242178 0  0  0   6.602    6.602    6.602    0    0    0
H       -1.13055091       3.53172738       3.19803580 0  0  0   2.548    2.548    2.548    0    0    0
H       -0.59473792       2.13566879       5.25202445 0  0  0   2.563    2.563    2.563    0    0    0
C       -3.92006655       2.47036411       1.17578952 0  0  0   6.627    6.627    6.627    0    0    0
H       -3.89021783       3.28920592       1.91412346 0  0  0   2.554    2.554    2.554    0    0    0
H       -4.97233423       2.31744211       0.88367118 0  0  0   2.51    2.51    2.51    0    0    0
C       -4.13287273       0.65537723       2.96552079 0  0  0   6.745    6.745    6.745    0    0    0
C       -3.33240571       1.15642040       1.80284945 0  0  0   6.593    6.593    6.593    0    0    0
H       -3.70733518      -0.27210115       3.38157355 0  0  0   2.503    2.503    2.503    0    0    0
H       -4.16315833       1.40020048       3.77722248 0  0  0   2.534    2.534    2.534    0    0    0
H       -2.29025848       1.34837999       2.11413012 0  0  0   2.527    2.527    2.527    0    0    0
H       -3.28955877       0.37972741       1.01857373 0  0  0   2.531    2.531    2.531    0    0    0
H       -5.17139970       0.43835377       2.66709547 0  0  0   2.534    2.534    2.534    0    0    0
H       -0.28062027       0.86430364       0.62887076 0  0  0   2.571    2.571    2.571    0    0    0
H       -1.60611989      -0.36548797       5.15606769 0  0  0   2.443    2.443    2.443    0    0    0
H        0.03718323       4.77904769       3.63768219 0  0  0   2.566    2.566    2.566    0    0    0
C        0.72641134      -3.54815349      -4.77242561 0  0  0   6.598    6.598    6.598    0    0    0
H        1.78733943      -3.38945111      -4.51577582 0  0  0   2.53    2.53    2.53    0    0    0
C        3.47975082      -1.02435336      -3.63807264 0  0  0   6.597    6.597    6.597    0    0    0
H        2.43893113      -0.68986242      -3.50467281 0  0  0   2.501    2.501    2.501    0    0    0
H        3.44529385      -1.88478602      -4.32829894 0  0  0   2.547    2.547    2.547    0    0    0
H        4.36992866       0.97572289      -3.63453255 0  0  0   2.518    2.518    2.518    0    0    0
C        1.04358704       2.03227263      -3.14257884 0  0  0   6.597    6.597    6.597    0    0    0
H        1.22031593       1.19824164      -3.84579622 0  0  0   2.576    2.576    2.576    0    0    0
C        3.43723627      -2.65957997      -1.59617499 0  0  0   6.612    6.612    6.612    0    0    0
C        4.07717456      -1.47480416      -2.28704706 0  0  0   6.606    6.606    6.606    0    0    0
H        3.50981226      -3.54383915      -2.25491672 0  0  0   2.552    2.552    2.552    0    0    0
H        4.05675442      -0.60862815      -1.60055379 0  0  0   2.541    2.541    2.541    0    0    0
H        5.14668088      -1.70475581      -2.44759843 0  0  0   2.556    2.556    2.556    0    0    0
C        0.93773144       0.48140988      -1.07680544 0  0  0   6.604    6.604    6.604    0    0    0
H        1.23774162      -0.38641238      -1.68889107 0  0  0   2.559    2.559    2.559    0    0    0
C        4.31882074       0.09266948      -4.29077096 0  0  0   6.751    6.751    6.751    0    0    0
H        3.88928925       0.41103984      -5.25374788 0  0  0   2.513    2.513    2.513    0    0    0
H        5.34806430      -0.25395897      -4.47591729 0  0  0   2.518    2.518    2.518    0    0    0
H        0.71033547      -4.33987934      -5.54260985 0  0  0   2.569    2.569    2.569    0    0    0
C        0.13011556      -2.29804668      -5.33505737 0  0  0   6.737    6.737    6.737    0    0    0
H        0.14760291      -1.48075481      -4.59536990 0  0  0   2.504    2.504    2.504    0    0    0
H       -0.91870374      -2.45874025      -5.63323406 0  0  0   2.516    2.516    2.516    0    0    0
C       -0.02869009      -4.05296145      -3.50961471 0  0  0   6.615    6.615    6.615    0    0    0
H       -6.67518541       0.34398528      -2.32042174 0  0  0   2.491    2.491    2.491    0    0    0
H       -2.75084066      -0.38465585      -5.92077278 0  0  0   2.511    2.511    2.511    0    0    0
H       -0.59714701       2.89280102      -4.31946621 0  0  0   2.495    2.495    2.495    0    0    0
H       -0.66723684       1.11560984      -2.31914225 0  0  0   2.548    2.548    2.548    0    0    0
C       -3.44815691       0.28941248      -3.95032669 0  0  0   6.602    6.602    6.602    0    0    0
C       -2.64489580       0.49574605      -5.26703140 0  0  0   6.757    6.757    6.757    0    0    0
H       -3.36375016       1.17476557      -3.29952818 0  0  0   2.546    2.546    2.546    0    0    0
H       -1.57420463       0.62851304      -5.04321628 0  0  0   2.479    2.479    2.479    0    0    0
C       -2.87325981      -0.98599479      -3.20506992 0  0  0   6.615    6.615    6.615    0    0    0
H       -1.81865345      -0.77874286      -2.95033168 0  0  0   2.528    2.528    2.528    0    0    0
H       -2.84974001      -1.81855324      -3.93163665 0  0  0   2.543    2.543    2.543    0    0    0
H        0.67745733      -1.94822981      -6.22531497 0  0  0   2.531    2.531    2.531    0    0    0
C       -6.38076492       1.03738615      -1.52099163 0  0  0   6.938    6.938    6.938    0    0    0
H        1.02708541       3.44113086      -4.80888763 0  0  0   2.515    2.515    2.515    0    0    0
H       -4.51785666       0.14526317      -4.17662461 0  0  0   2.534    2.534    2.534    0    0    0
H       -2.98663089       1.37927479      -5.82825080 0  0  0   2.526    2.526    2.526    0    0    0
C       -0.04682440      -5.61533636      -1.55990814 0  0  0   6.747    6.747    6.747    0    0    0
H        0.34346376      -4.82627260      -0.89662149 0  0  0   2.49    2.49    2.49    0    0    0
H        2.35730085      -2.47946519      -1.45395493 0  0  0   2.532    2.532    2.532    0    0    0
C        3.53675775      -4.35842029       0.39395589 0  0  0   6.746    6.746    6.746    0    0    0
C        4.06530240      -3.04370447      -0.18464201 0  0  0   6.607    6.607    6.607    0    0    0
H        2.44711599      -4.30912776       0.54940931 0  0  0   2.51    2.51    2.51    0    0    0
H        3.87453654      -2.21935528       0.52400705 0  0  0   2.521    2.521    2.521    0    0    0
C        0.54479440      -1.09834013       0.90323875 0  0  0   6.588    6.588    6.588    0    0    0
H        0.21563417      -2.27941850       2.68747198 0  0  0   2.467    2.467    2.467    0    0    0
H        0.69699571      -2.00688671       0.29185315 0  0  0   2.609    2.609    2.609    0    0    0
C       -0.73998190      -5.16166802       2.01545005 0  0  0   6.946    6.946    6.946    0    0    0
C        0.43652029      -5.40130061      -2.98115812 0  0  0   6.592    6.592    6.592    0    0    0
H        0.29211183      -5.53462333       1.96614957 0  0  0   2.471    2.471    2.471    0    0    0
H       -1.43701607      -5.98060752       1.79186815 0  0  0   2.495    2.495    2.495    0    0    0
H       -0.94162612      -4.77202006       3.02255205 0  0  0   2.462    2.462    2.462    0    0    0
H        3.74392070      -5.19869449      -0.28778820 0  0  0   2.511    2.511    2.511    0    0    0
H        4.00645074      -4.58561512       1.36417328 0  0  0   2.506    2.506    2.506    0    0    0
H        5.16207399      -3.11243500      -0.29349790 0  0  0   2.559    2.559    2.559    0    0    0
H        0.28318060      -6.58464634      -1.15331627 0  0  0   2.525    2.525    2.525    0    0    0
H        1.54041212      -5.44177811      -2.98920642 0  0  0   2.545    2.545    2.545    0    0    0
H        0.08570883      -6.21244289      -3.64164134 0  0  0   2.557    2.557    2.557    0    0    0
H        0.09544509      -3.28940832      -2.71941869 0  0  0   2.514    2.514    2.514    0    0    0
H        2.20725350      -3.73641518       3.19508368 0  0  0   2.43    2.43    2.43    0    0    0
H       -0.87271700      -4.35743098       1.27907797 0  0  0   2.434    2.434    2.434    0    0    0
H       -0.93979374      -0.34819038      -0.46335824 0  0  0   2.543    2.543    2.543    0    0    0
H       -1.28172596      -1.82732135       1.83530844 0  0  0   2.517    2.517    2.517    0    0    0
C       -3.61783178      -1.43972620      -1.96419747 0  0  0   6.6    6.6    6.6    0    0    0
H       -3.72664190      -0.57709952      -1.28180629 0  0  0   2.547    2.547    2.547    0    0    0
H       -4.64670531      -1.71445288      -2.26097031 0  0  0   2.553    2.553    2.553    0    0    0
C       -3.81877155      -3.15198798      -0.02507173 0  0  0   6.751    6.751    6.751    0    0    0
C       -3.00947666      -2.58753234      -1.18735918 0  0  0   6.587    6.587    6.587    0    0    0
H       -4.79827490      -3.52521452      -0.36414115 0  0  0   2.528    2.528    2.528    0    0    0
H       -3.28295407      -3.99073335       0.44736080 0  0  0   2.489    2.489    2.489    0    0    0
H       -2.01681835      -2.28476545      -0.80962260 0  0  0   2.537    2.537    2.537    0    0    0
H       -2.81284576      -3.41916530      -1.88922684 0  0  0   2.555    2.555    2.555    0    0    0
H       -3.99831484      -2.38770209       0.74806137 0  0  0   2.522    2.522    2.522    0    0    0
H       -6.04076973       0.46498621      -0.64700997 0  0  0   2.454    2.454    2.454    0    0    0
H       -1.14731775      -5.58796299      -1.50679564 0  0  0   2.512    2.512    2.512    0    0    0
H       -1.11136407      -4.09967714      -3.72314871 0  0  0   2.543    2.543    2.543    0    0    0
H        1.70928004      -4.91043842       4.45662028 0  0  0   2.469    2.469    2.469    0    0    0
C        2.21380944      -3.95234237       4.27216061 0  0  0   6.944    6.944    6.944    0    0    0
H        3.25182136      -4.00936187       4.62697990 0  0  0   2.483    2.483    2.483    0    0    0
144
Lattice="50 0 0 0 50 0 0 0 50" Properties=species:S:1:pos:R:3:force:R:3:axx:R:1:ayy:R:1:azz:R:1:axy:R:1:ayz:R:1:axz:R:1 energy=-7878.835871755537 pol="473.50753 -12.20843 -17.53687 -12.22315 497.78386 17.90969 -17.54234 17.90264 487.97301" pbc="F F F"
C       -3.45014231       3.45652944      -0.57322782 0  0  0   6.935    6.935    6.935    0    0    0
H        1.63093872       3.15771985      -4.35818099 0  0  0   2.536    2.536    2.536    0    0    0
C       -0.76550705       6.18543820       0.58327306 0  0  0   6.735    6.735    6.735    0    0    0
C       -1.13663687       5.19067041       1.67745099 0  0  0   6.734    6.734    6.734    0    0    0
H       -1.41954960       6.06840733      -0.29525889 0  0  0   2.51    2.51    2.51    0    0    0
H       -1.03652556       4.15485362       1.31751869 0  0  0   2.473    2.473    2.473    0    0    0
H       -2.75108667       4.03675553      -1.19020544 0  0  0   2.473    2.473    2.473    0    0    0
H       -0.49548980       4.43017099      -4.00163137 0  0  0   2.51    2.51    2.51    0    0    0
C       -3.00005359       1.29228137      -3.98555588 0  0  0   6.746    6.746    6.746    0    0    0
H       -2.01852507       1.55327343      -3.56010382 0  0  0   2.455    2.455    2.455    0    0    0
H       -3.66529937       2.15986239      -3.85126892 0  0  0   2.553    2.553    2.553    0    0    0
H       -0.83286411       2.71815705      -1.83476444 0  0  0   2.506    2.506    2.506    0    0    0
C       -0.23108261       4.04533460      -4.99964346 0  0  0   6.753    6.753    6.753    0    0    0
H       -0.86360206       7.22218854       0.94231115 0  0  0   2.531    2.531    2.531    0    0    0
H       -1.54742580       0.27774835      -1.52780601 0  0  0   2.511    2.511    2.511    0    0    0
H       -1.16608574       3.76479569      -5.50991752 0  0  0   2.505    2.505    2.505    0    0    0
H        0.23066185       4.86906674      -5.56717832 0  0  0   2.53    2.53    2.53    0    0    0
C        0.10035588       2.50518098      -1.29120038 0  0  0   6.764    6.764    6.764    0    0    0
C       -0.07740929       1.32597045      -0.33433643 0  0  0   6.588    6.588    6.588    0    0    0
H        3.10440627       0.95283143      -1.40545487 0  0  0   2.525    2.525    2.525    0    0    0
C        0.71841282       2.85166888      -4.89953422 0  0  0   6.592    6.592    6.592    0    0    0
H       -4.17570812       2.94795071      -1.22238951 0  0  0   2.488    2.488    2.488    0    0    0
C       -0.59743954       0.05155174      -1.01267422 0  0  0   6.609    6.609    6.609    0    0    0
H        0.24398423       2.05894424      -4.29568386 0  0  0   2.513    2.513    2.513    0    0    0
H        0.88303831       1.11079437       0.16512065 0  0  0   2.518    2.518    2.518    0    0    0
C        4.06686855       2.79768199      -1.99524904 0  0  0   6.754    6.754    6.754    0    0    0
H        0.27449873       6.03917589       0.25144340 0  0  0   2.536    2.536    2.536    0    0    0
H        3.01271985       3.84558534       2.29633896 0  0  0   2.498    2.498    2.498    0    0    0
C        2.34783491       3.64570494       1.44522959 0  0  0   6.935    6.935    6.935    0    0    0
H        2.25663604       4.55071907       0.82984658 0  0  0   2.502    2.502    2.502    0    0    0
H        2.76523000       2.83084556       0.83839450 0  0  0   2.443    2.443    2.443    0    0    0
H        0.38803162       3.42006586      -0.75022633 0  0  0   2.505    2.505    2.505    0    0    0
H        0.88399064       2.29956749      -2.03444738 0  0  0   2.475    2.475    2.475    0    0    0
H        4.81036319       2.79706655      -1.18218273 0  0  0   2.526    2.526    2.526    0    0    0
H        3.23009752       3.44435031      -1.68652569 0  0  0   2.484    2.484    2.484    0    0    0
H        4.53389938       3.25449494      -2.88252578 0  0  0   2.54    2.54    2.54    0    0    0
H        1.35670609       3.35253414       1.81690575 0  0  0   2.443    2.443    2.443    0    0    0
C        3.59069701       1.37796989      -2.30122441 0  0  0   6.594    6.594    6.594    0    0    0
C       -1.94395066      -0.29692318      -5.65319499 0  0  0   6.747    6.747    6.747    0    0    0
C       -2.86503247       0.90676709      -5.45812941 0  0  0   6.577    6.577    6.577    0    0    0
H       -0.94055845      -0.09180722      -5.24690879 0  0  0   2.46    2.46    2.46    0    0    0
H       -2.34462316      -1.18375106      -5.13674269 0  0  0   2.522    2.522    2.522    0    0    0
C       -0.16426760      -1.87797211      -2.62216707 0  0  0   6.603    6.603    6.603    0    0    0
H        1.05431870      -1.85895440      -4.42968941 0  0  0   2.547    2.547    2.547    0    0    0
H       -1.11178402      -1.65964917      -3.14405679 0  0  0   2.517    2.517    2.517    0    0    0
C        2.06186331       1.08232927      -6.13617659 0  0  0   6.742    6.742    6.742    0    0    0
C        1.10900463       2.27168793      -6.26172386 0  0  0   6.599    6.599    6.599    0    0    0
H        2.32183862       0.66532730      -7.12204412 0  0  0   2.529    2.529    2.529    0    0    0
H        1.58180228       3.05833979      -6.87566817 0  0  0   2.55    2.55    2.55    0    0    0
H        0.19762450       1.95687113      -6.80008955 0  0  0   2.519    2.519    2.519    0    0    0
H        0.38455667      -3.45829378      -4.02715280 0  0  0   2.53    2.53    2.53    0    0    0
H       -1.82902530      -0.55190262      -6.71864922 0  0  0   2.547    2.547    2.547    0    0    0
H       -2.47320084       1.76610037      -6.02932113 0  0  0   2.557    2.557    2.557    0    0    0
H       -3.86188943       0.68057416      -5.87497587 0  0  0   2.573    2.573    2.573    0    0    0
H        1.60564425       0.27652410      -5.53937328 0  0  0   2.542    2.542    2.542    0    0    0
C        0.38057835      -0.58502311      -2.00756914 0  0  0   6.605    6.605    6.605    0    0    0
H        0.61113361       0.12907351      -2.81678299 0  0  0   2.54    2.54    2.54    0    0    0
C        0.81003847      -2.53755154      -3.59718272 0  0  0   6.748    6.748    6.748    0    0    0
H       -3.41208304       0.45736625      -3.39710977 0  0  0   2.516    2.516    2.516    0    0    0
H        1.33445781      -0.79925006      -1.49450180 0  0  0   2.528    2.528    2.528    0    0    0
C        4.21484513      -0.94457944      -3.12141462 0  0  0   6.751    6.751    6.751    0    0    0
H        3.57507858      -1.53137312       0.15643658 0  0  0   2.559    2.559    2.559    0    0    0
H        3.49986972      -0.89198496      -3.95802181 0  0  0   2.488    2.488    2.488    0    0    0
H        5.03876852      -1.61019418      -3.42361291 0  0  0   2.545    2.545    2.545    0    0    0
H        5.47384716       0.36947991      -1.94893706 0  0  0   2.554    2.554    2.554    0    0    0
H        1.75055439      -2.80723688      -3.09107479 0  0  0   2.495    2.495    2.495    0    0    0
H        5.23508410       0.89349683      -3.62367678 0  0  0   2.559    2.559    2.559    0    0    0
H        2.99902569       1.38149634      -5.63969267 0  0  0   2.499    2.499    2.499    0    0    0
C        4.72114346       0.44954014      -2.75284860 0  0  0   6.595    6.595    6.595    0    0    0
H        4.13261957      -3.57216259      -1.38280465 0  0  0   2.511    2.511    2.511    0    0    0
H        2.81932360       1.41496606      -3.08978589 0  0  0   2.512    2.512    2.512    0    0    0
H        3.70003027      -1.41076502      -2.26698605 0  0  0   2.494    2.494    2.494    0    0    0
H       -2.59348090       4.15065935       4.39341542 0  0  0   2.479    2.479    2.479    0    0    0
C       -2.41967779       1.70553286       3.03471412 0  0  0   6.749    6.749    6.749    0    0    0
C       -3.64966830       2.55451688       3.35310249 0  0  0   6.584    6.584    6.584    0    0    0
H       -2.58517964       1.07104651       2.14984277 0  0  0   2.51    2.51    2.51    0    0    0
H       -3.90754989       3.17460052       2.47743806 0  0  0   2.535    2.535    2.535    0    0    0
H       -1.54341725       2.34126583       2.83243846 0  0  0   2.513    2.513    2.513    0    0    0
H       -0.78094817       1.61925198       0.46391860 0  0  0   2.595    2.595    2.595    0    0    0
C       -5.39487704       0.29092037       0.88272067 0  0  0   6.759    6.759    6.759    0    0    0
H       -5.12584403      -0.21497995       1.82387441 0  0  0   2.523    2.523    2.523    0    0    0
H       -5.24676090       1.37270204       1.02736824 0  0  0   2.467    2.467    2.467    0    0    0
H       -2.71781455      -1.52697768       2.11378863 0  0  0   2.498    2.498    2.498    0    0    0
C       -1.78905904      -1.79331420       2.64310875 0  0  0   6.752    6.752    6.752    0    0    0
H       -1.92656316      -1.54819664       3.70819990 0  0  0   2.539    2.539    2.539    0    0    0
C       -3.43126202       3.45646947       4.56695879 0  0  0   6.761    6.761    6.761    0    0    0
H       -6.46813772       0.12070024       0.70074672 0  0  0   2.531    2.531    2.531    0    0    0
H       -4.32608715       4.05953127       4.78887781 0  0  0   2.546    2.546    2.546    0    0    0
H       -3.19752560       2.85919653       5.46288138 0  0  0   2.502    2.502    2.502    0    0    0
H       -4.51486203       1.89366608       3.53612306 0  0  0   2.541    2.541    2.541    0    0    0
H       -3.48732419      -0.03644395      -0.07897806 0  0  0   2.519    2.519    2.519    0    0    0
H       -2.16984065       1.04558656       3.88067930 0  0  0   2.511    2.511    2.511    0    0    0
H       -4.81120398       0.31882365      -1.19877711 0  0  0   2.545    2.545    2.545    0    0    0
C       -4.55424941      -0.23674300      -0.27969839 0  0  0   6.594    6.594    6.594    0    0    0
H       -2.89439168       2.70894498       0.00803993 0  0  0   2.418    2.418    2.418    0    0    0
H       -2.17795378       5.33456463       2.00653867 0  0  0   2.5    2.5    2.5    0    0    0
H       -0.52359860       3.69133333       6.23675230 0  0  0   2.472    2.472    2.472    0    0    0
H       -0.40885609       2.01433761       5.60993098 0  0  0   2.448    2.448    2.448    0    0    0
H        1.08302913       2.92252469       6.01885507 0  0  0   2.489    2.489    2.489    0    0    0
H        0.11146280       3.39181578       4.58594979 0  0  0   2.463    2.463    2.463    0    0    0
C        0.06552202       3.00516302       5.61331342 0  0  0   6.942    6.942    6.942    0    0    0
H       -0.98258187      -1.15304610       2.25239389 0  0  0   2.471    2.471    2.471    0    0    0
C        1.50491866       0.44500351       3.25133403 0  0  0   6.757    6.757    6.757    0    0    0
H        0.67334380       0.77455404       2.60864530 0  0  0   2.493    2.493    2.493    0    0    0
H        1.90428264       1.33330800       3.76578946 0  0  0   2.481    2.481    2.481    0    0    0
H        1.09210234      -0.23070933       4.01757564 0  0  0   2.519    2.519    2.519    0    0    0
C        2.58735376      -0.25684938       2.43070615 0  0  0   6.592    6.592    6.592    0    0    0
H        3.42118263      -0.54303903       3.09578683 0  0  0   2.562    2.562    2.562    0    0    0
H        3.00415083       0.44877012       1.69067568 0  0  0   2.554    2.554    2.554    0    0    0
H       -0.48430828       5.30738261       2.55732259 0  0  0   2.54    2.54    2.54    0    0    0
H       -3.98090692       4.13193758       0.11121301 0  0  0   2.502    2.502    2.502    0    0    0
H       -0.84176620      -0.69388445      -0.23512939 0  0  0   2.581    2.581    2.581    0    0    0
H       -0.40905735      -2.59028303      -1.81588291 0  0  0   2.542    2.542    2.542    0    0    0
C       -4.75300346      -1.73612269      -0.52112459 0  0  0   6.595    6.595    6.595    0    0    0
H       -4.48646991      -2.29207308       0.39508843 0  0  0   2.544    2.544    2.544    0    0    0
C       -3.92325043      -2.26138932      -1.69238405 0  0  0   6.751    6.751    6.751    0    0    0
H       -2.85076554      -2.08356521      -1.51935724 0  0  0   2.455    2.455    2.455    0    0    0
H       -4.20299240      -1.75772226      -2.63137589 0  0  0   2.544    2.544    2.544    0    0    0
H       -2.26920051      -3.88885433       2.86843641 0  0  0   2.565    2.565    2.565    0    0    0
C       -0.94214592      -5.11595126       0.73936652 0  0  0   6.595    6.595    6.595    0    0    0
C       -1.25282544      -3.63428670       0.97273718 0  0  0   6.619    6.619    6.619    0    0    0