250
Lattice="50 0 0 0 50 0 0 0 50" Properties=species:S:1:pos:R:3:force:R:3:axx:R:1:ayy:R:1:azz:R:1:axy:R:1:ayz:R:1:axz:R:1 energy=-14585.260206958272 pol="849.01646 -32.74596 -15.35694 -32.7991 898.88812 60.08755 -15.41261 60.10673 932.47904" pbc="F F F"
C        0.00000000       0.00000000       0.00000000 0  0  0   6.606    6.606    6.606    0    0    0
C       -2.40119386      -2.52644472      -3.98893103 0  0  0   6.596    6.596    6.596    0    0    0
C       -2.77913563      -3.29451107      -5.26401268 0  0  0   6.752    6.752    6.752    0    0    0
H       -2.12424116      -3.23650995      -3.19099010 0  0  0   2.483    2.483    2.483    0    0    0
H       -1.50584213      -1.91299180      -4.18740817 0  0  0   2.575    2.575    2.575    0    0    0
C       -3.29702427      -0.79335806      -2.24178811 0  0  0   6.598    6.598    6.598    0    0    0
C       -3.55199034      -1.62596703      -3.49923043 0  0  0   6.617    6.617    6.617    0    0    0
H       -2.93844918      -1.44553675      -1.42637838 0  0  0   2.522    2.522    2.522    0    0    0
H       -2.48110541      -0.07829564      -2.44867645 0  0  0   2.566    2.566    2.566    0    0    0
H       -4.43307442      -2.27034887      -3.32142518 0  0  0   2.573    2.573    2.573    0    0    0
H       -3.84238322      -0.94554756      -4.31927908 0  0  0   2.531    2.531    2.531    0    0    0
C       -4.52720747      -0.02682792      -1.76810328 0  0  0   6.605    6.605    6.605    0    0    0
H       -5.33394602      -0.72554641      -1.48551051 0  0  0   2.555    2.555    2.555    0    0    0
H       -4.90952890       0.61522490      -2.58164097 0  0  0   2.51    2.51    2.51    0    0    0
C       -2.06830941      -5.97793475      -2.38474759 0  0  0   6.744    6.744    6.744    0    0    0
H       -2.87187178      -5.64079674      -3.05900500 0  0  0   2.491    2.491    2.491    0    0    0
C       -2.95556026      -4.45539304      -0.49269657 0  0  0   6.616    6.616    6.616    0    0    0
H       -2.07616460      -3.78745607      -0.50111786 0  0  0   2.549    2.549    2.549    0    0    0
H       -3.68133882      -4.05447508      -1.22274766 0  0  0   2.504    2.504    2.504    0    0    0
H       -4.44850592      -5.18359060       0.95049002 0  0  0   2.547    2.547    2.547    0    0    0
H       -2.91062088       0.00812974      -6.39034233 0  0  0   2.465    2.465    2.465    0    0    0
H       -3.88992754       1.43418984      -4.69698551 0  0  0   2.477    2.477    2.477    0    0    0
H        1.05233649      -2.65707122      -4.07707725 0  0  0   2.535    2.535    2.535    0    0    0
H        0.34185189      -1.20356484      -2.23026247 0  0  0   2.542    2.542    2.542    0    0    0
H       -0.81602328       0.17968290      -0.72147789 0  0  0   2.523    2.523    2.523    0    0    0
C       -3.57526364       0.49347371      -7.12407970 0  0  0   6.752    6.752    6.752    0    0    0
C       -4.43590149       2.06464515      -5.42104629 0  0  0   6.612    6.612    6.612    0    0    0
H       -1.93160350      -3.88658067      -5.64556725 0  0  0   2.518    2.518    2.518    0    0    0
H       -3.62291401      -3.98025413      -5.08183738 0  0  0   2.534    2.534    2.534    0    0    0
H       -3.07523960      -2.58986163      -6.06000279 0  0  0   2.509    2.509    2.509    0    0    0
H        5.35947466      -5.36559759       3.07630661 0  0  0   2.544    2.544    2.544    0    0    0
H       -4.53343272      -0.05043821      -7.12853013 0  0  0   2.524    2.524    2.524    0    0    0
H       -5.47138797       1.68623865      -5.47129728 0  0  0   2.545    2.545    2.545    0    0    0
H       -1.18677384      -5.34174961      -2.55562180 0  0  0   2.517    2.517    2.517    0    0    0
C       -2.53235144      -5.90772883      -0.93373511 0  0  0   6.611    6.611    6.611    0    0    0
H       -1.73981268      -6.27011391      -0.25715077 0  0  0   2.499    2.499    2.499    0    0    0
C       -3.61267128      -4.46515657       0.92325268 0  0  0   6.619    6.619    6.619    0    0    0
H       -2.86343725      -4.80392987       1.65976032 0  0  0   2.519    2.519    2.519    0    0    0
C        1.63180327      -5.84871395       0.96611144 0  0  0   6.603    6.603    6.603    0    0    0
C        1.18842345      -6.70933966      -0.25946397 0  0  0   6.761    6.761    6.761    0    0    0
H        2.45810601      -5.18356116       0.65989963 0  0  0   2.561    2.561    2.561    0    0    0
H        0.86098908      -6.06034333      -1.08636904 0  0  0   2.444    2.444    2.444    0    0    0
C        0.89942170      -4.01879599       2.71039524 0  0  0   6.601    6.601    6.601    0    0    0
C        0.46517225      -4.97028284       1.58758455 0  0  0   6.617    6.617    6.617    0    0    0
H        1.43142499      -4.59640665       3.48728127 0  0  0   2.563    2.563    2.563    0    0    0
H        1.65190785      -3.32424647       2.29508567 0  0  0   2.564    2.564    2.564    0    0    0
H       -0.32057278      -5.65254325       1.95813720 0  0  0   2.568    2.568    2.568    0    0    0
H        0.00144953      -4.38334097       0.77500028 0  0  0   2.482    2.482    2.482    0    0    0
C        1.75709894      -3.16005458      -3.39182356 0  0  0   6.592    6.592    6.592    0    0    0
C        1.94725878      -4.64410486      -3.85478927 0  0  0   6.765    6.765    6.765    0    0    0
H        2.52004787      -5.21536668      -3.10595085 0  0  0   2.49    2.49    2.49    0    0    0
H        0.97033913      -5.13869330      -3.98560223 0  0  0   2.52    2.52    2.52    0    0    0
C        1.04088728      -1.67461874      -1.51274900 0  0  0   6.598    6.598    6.598    0    0    0
C        1.24502149      -3.09869090      -1.97842081 0  0  0   6.597    6.597    6.597    0    0    0
H        1.95626663      -3.61283139      -1.30839577 0  0  0   2.495    2.495    2.495    0    0    0
H        0.29135385      -3.64965620      -1.90591523 0  0  0   2.56    2.56    2.56    0    0    0
C        0.46815346      -1.46502725      -0.12053920 0  0  0   6.601    6.601    6.601    0    0    0
H        1.22031650      -1.69902582       0.65041778 0  0  0   2.507    2.507    2.507    0    0    0
H       -0.39038581      -2.13570985       0.05415034 0  0  0   2.569    2.569    2.569    0    0    0
H        4.41663811      -3.95771041       2.53360293 0  0  0   2.484    2.484    2.484    0    0    0
C        5.19098625      -4.28965828       3.24077326 0  0  0   6.746    6.746    6.746    0    0    0
C        4.76075660      -4.00666841       4.66769812 0  0  0   6.594    6.594    6.594    0    0    0
H        5.48449836      -4.44271770       5.37746603 0  0  0   2.552    2.552    2.552    0    0    0
H        3.78234335      -4.48328584       4.85347007 0  0  0   2.536    2.536    2.536    0    0    0
H        2.03619368      -6.50880184       1.75245977 0  0  0   2.55    2.55    2.55    0    0    0
H        2.01310463      -7.34358365      -0.62055486 0  0  0   2.521    2.521    2.521    0    0    0
H        0.34748333      -7.36972035       0.01106483 0  0  0   2.521    2.521    2.521    0    0    0
H       -1.79859373      -7.00572554      -2.67530179 0  0  0   2.53    2.53    2.53    0    0    0
H       -3.39490937      -6.58368473      -0.79522019 0  0  0   2.556    2.556    2.556    0    0    0
H        2.49579209      -4.69659331      -4.80818381 0  0  0   2.524    2.524    2.524    0    0    0
C       -4.11268792       0.81496597      -0.59164332 0  0  0   6.59    6.59    6.59    0    0    0
H       -3.76968256       0.17830137       0.24331557 0  0  0   2.508    2.508    2.508    0    0    0
H       -3.26942113       1.46643715      -0.88219886 0  0  0   2.551    2.551    2.551    0    0    0
C       -4.98120747       2.65093565       0.99006279 0  0  0   6.752    6.752    6.752    0    0    0
C       -5.28731466       1.67348053      -0.15735909 0  0  0   6.602    6.602    6.602    0    0    0
H       -4.57958449       2.12764197       1.87158359 0  0  0   2.483    2.483    2.483    0    0    0
H       -4.23922983       3.39864122       0.66856537 0  0  0   2.517    2.517    2.517    0    0    0
H       -6.11404392       1.00936596       0.15353940 0  0  0   2.567    2.567    2.567    0    0    0
H       -5.66355344       2.25063017      -1.02072410 0  0  0   2.525    2.525    2.525    0    0    0
C       -4.10348291      -3.05106100       1.27615232 0  0  0   6.601    6.601    6.601    0    0    0
H       -3.31859002      -2.33561722       0.96350342 0  0  0   2.54    2.54    2.54    0    0    0
H       -4.99825945      -2.80629368       0.67634597 0  0  0   2.538    2.538    2.538    0    0    0
C       -4.68528884      -1.31365630       3.00407650 0  0  0   6.602    6.602    6.602    0    0    0
C       -4.38128926      -2.80263819       2.76114677 0  0  0   6.611    6.611    6.611    0    0    0
H       -3.82663710      -0.71910548       2.64317882 0  0  0   2.548    2.548    2.548    0    0    0
H       -5.55317869      -1.01672132       2.38883761 0  0  0   2.531    2.531    2.531    0    0    0
H       -5.22692510      -3.42384173       3.10187979 0  0  0   2.557    2.557    2.557    0    0    0
C       -4.95518808      -0.94270521       4.47409435 0  0  0   6.612    6.612    6.612    0    0    0
H       -4.26828863       1.16360007       4.58808368 0  0  0   2.524    2.524    2.524    0    0    0
H       -4.32909749       3.49789630      -2.73941240 0  0  0   2.469    2.469    2.469    0    0    0
H       -1.66481084       2.05247903       0.83051205 0  0  0   2.524    2.524    2.524    0    0    0
C       -1.15181525       2.28521584       2.94406488 0  0  0   6.616    6.616    6.616    0    0    0
H       -3.00308157       3.45007791       2.86087164 0  0  0   2.522    2.522    2.522    0    0    0
H       -2.19019271       3.51433720       5.31195935 0  0  0   2.516    2.516    2.516    0    0    0
C       -5.03472104       3.75772221      -3.54397132 0  0  0   6.746    6.746    6.746    0    0    0
C       -5.18538217       0.58367197       4.78147982 0  0  0   6.756    6.756    6.756    0    0    0
H       -5.94389324       3.15103558      -3.40071963 0  0  0   2.529    2.529    2.529    0    0    0
H       -5.89114948       3.19023825       1.29675061 0  0  0   2.54    2.54    2.54    0    0    0
H       -5.98849778       0.99982506       4.15384448 0  0  0   2.5    2.5    2.5    0    0    0
H       -5.45798666       0.71895195       5.83977916 0  0  0   2.509    2.509    2.509    0    0    0
H       -5.84102843      -1.50372841       4.82295047 0  0  0   2.56    2.56    2.56    0    0    0
H       -3.50244843      -3.09948533       3.35980719 0  0  0   2.522    2.522    2.522    0    0    0
H       -4.11269158      -1.29467211       5.09649587 0  0  0   2.506    2.506    2.506    0    0    0
C        0.26933436      -2.02631516       4.33631374 0  0  0   6.617    6.617    6.617    0    0    0
C       -0.21223801      -3.18665368       3.40282089 0  0  0   6.613    6.613    6.613    0    0    0
H        0.99689920      -2.42079850       5.06513412 0  0  0   2.52    2.52    2.52    0    0    0
H        0.75963304      -1.21800432       3.77364061 0  0  0   2.527    2.527    2.527    0    0    0
H       -0.84237013      -3.87571838       3.99308732 0  0  0   2.56    2.56    2.56    0    0    0
H       -0.87553273      -2.74962288       2.63460127 0  0  0   2.507    2.507    2.507    0    0    0
C       -0.72845867      -0.82231979       6.46837959 0  0  0   6.585    6.585    6.585    0    0    0
C       -1.02206815      -1.50409259       5.10251596 0  0  0   6.624    6.624    6.624    0    0    0
H        0.06570935      -0.07450772       6.28288241 0  0  0   2.559    2.559    2.559    0    0    0
H       -1.69983356      -2.35703259       5.28149943 0  0  0   2.547    2.547    2.547    0    0    0
H       -1.56290540      -0.80727358       4.43903058 0  0  0   2.51    2.51    2.51    0    0    0
H       -2.52565510       0.33245386       6.36122053 0  0  0   2.476    2.476    2.476    0    0    0
C       -0.44459050       0.42522461       1.40118568 0  0  0   6.584    6.584    6.584    0    0    0
H        0.37976072       0.21179958       2.10405600 0  0  0   2.53    2.53    2.53    0    0    0
H       -1.29818329      -0.19992282       1.71977009 0  0  0   2.579    2.579    2.579    0    0    0
H       -1.73254183       1.48399713       3.43589028 0  0  0   2.578    2.578    2.578    0    0    0
H        2.87072547      -0.53710039       6.24554076 0  0  0   2.468    2.468    2.468    0    0    0
C       -1.86419128      -0.13695509       7.10907489 0  0  0   6.74    6.74    6.74    0    0    0
C        4.05048744      -2.37263264       6.32342768 0  0  0   6.598    6.598    6.598    0    0    0
H        3.36204440      -1.02698909       7.88417237 0  0  0   2.527    2.527    2.527    0    0    0
H        4.75907003      -2.83230507       7.03677555 0  0  0   2.562    2.562    2.562    0    0    0
H        3.13207019      -2.98769698       6.35844144 0  0  0   2.553    2.553    2.553    0    0    0
H       -0.27774009      -1.56079821       7.15501937 0  0  0   2.549    2.549    2.549    0    0    0
H       -1.52235677       0.66855534       7.77994344 0  0  0   2.525    2.525    2.525    0    0    0
H       -2.48334251      -0.82513578       7.70834783 0  0  0   2.541    2.541    2.541    0    0    0
C        1.07726488       0.62745852      -5.47477058 0  0  0   6.615    6.615    6.615    0    0    0
C        0.53321232      -0.29687562      -6.67377619 0  0  0   6.773    6.773    6.773    0    0    0
H        1.78149547       0.02927740      -4.87580094 0  0  0   2.522    2.522    2.522    0    0    0
H        1.62631220       1.49012924      -5.88654166 0  0  0   2.525    2.525    2.525    0    0    0
H       -0.04710131      -1.14017488      -6.26808641 0  0  0   2.504    2.504    2.504    0    0    0
C        0.40351892       1.89805291      -3.40797332 0  0  0   6.601    6.601    6.601    0    0    0
C       -0.10096163       1.10908485      -4.58033312 0  0  0   6.598    6.598    6.598    0    0    0
H        0.83597963       1.22791427      -2.64739848 0  0  0   2.518    2.518    2.518    0    0    0
H        1.22536375       2.55422556      -3.74901676 0  0  0   2.529    2.529    2.529    0    0    0
H       -0.69535247       0.24448278      -4.24124450 0  0  0   2.547    2.547    2.547    0    0    0
H       -0.77158130       1.72729775      -5.20438039 0  0  0   2.52    2.52    2.52    0    0    0
C       -0.69278428       2.78421027      -2.80635423 0  0  0   6.603    6.603    6.603    0    0    0
H       -1.46498661       2.12162252      -2.37326814 0  0  0   2.579    2.579    2.579    0    0    0
H       -1.19398862       3.31307682      -3.63936642 0  0  0   2.549    2.549    2.549    0    0    0
H        0.83827379       0.65335624      -0.30493640 0  0  0   2.573    2.573    2.573    0    0    0
H        2.23415213       5.36588491      -3.51520584 0  0  0   2.464    2.464    2.464    0    0    0
C        4.22845805       2.28335830      -2.64327516 0  0  0   6.606    6.606    6.606    0    0    0
H        3.81550609       2.91912846      -3.44581662 0  0  0   2.566    2.566    2.566    0    0    0
H        3.22282716       0.56363167      -3.47087956 0  0  0   2.516    2.516    2.516    0    0    0
H        2.41787758       2.33019314      -1.41790005 0  0  0   2.534    2.534    2.534    0    0    0
C        2.41302167       6.18776291      -4.22220453 0  0  0   6.938    6.938    6.938    0    0    0
C       -3.77420724       1.97471054      -6.76888611 0  0  0   6.589    6.589    6.589    0    0    0
C       -4.42248305       3.53184297      -4.90835611 0  0  0   6.598    6.598    6.598    0    0    0
H        5.25825948       1.13210770      -4.94803076 0  0  0   2.563    2.563    2.563    0    0    0
H       -2.79170788       2.47822748      -6.74988751 0  0  0   2.542    2.542    2.542    0    0    0
H       -4.38807965       2.47843332      -7.53520346 0  0  0   2.551    2.551    2.551    0    0    0
H       -3.38351996       3.90699070      -4.91225154 0  0  0   2.553    2.553    2.553    0    0    0
H       -4.97194488       4.14390590      -5.64618459 0  0  0   2.569    2.569    2.569    0    0    0
H        3.14180172       5.85709033      -4.97251251 0  0  0   2.477    2.477    2.477    0    0    0
H        1.47158406       6.45478201      -4.71363873 0  0  0   2.463    2.463    2.463    0    0    0
H        1.36606777      -0.70126637      -7.26914264 0  0  0   2.521    2.521    2.521    0    0    0
H       -0.12130903       0.28940498      -7.33878021 0  0  0   2.502    2.502    2.502    0    0    0
H        2.71514534      -2.62090856      -3.47417176 0  0  0   2.548    2.548    2.548    0    0    0
H        1.98425013      -1.10985415      -1.60954602 0  0  0   2.563    2.563    2.563    0    0    0
C        5.43865006      -2.22239080      -0.54769457 0  0  0   6.575    6.575    6.575    0    0    0
C        5.03341456      -3.34760546      -1.45399230 0  0  0   6.747    6.747    6.747    0    0    0
H        6.29385643      -2.57702447       0.05737752 0  0  0   2.582    2.582    2.582    0    0    0
H        5.83690131      -1.39437377      -1.16137952 0  0  0   2.548    2.548    2.548    0    0    0
H        4.53631254      -4.16243257      -0.90301090 0  0  0   2.538    2.538    2.538    0    0    0
H        4.34795094      -3.00118971      -2.23876481 0  0  0   2.446    2.446    2.446    0    0    0
C        4.88908308      -0.60672981       1.38306072 0  0  0   6.633    6.633    6.633    0    0    0
C        4.41298636      -1.71363039       0.36885960 0  0  0   6.601    6.601    6.601    0    0    0
H        5.52983377      -1.05611832       2.16048410 0  0  0   2.53    2.53    2.53    0    0    0
H        5.49324568       0.15428710       0.85986251 0  0  0   2.564    2.564    2.564    0    0    0
H        3.96115556      -2.53693857       0.94784741 0  0  0   2.569    2.569    2.569    0    0    0
H        3.59257503      -1.27468167      -0.22275860 0  0  0   2.502    2.502    2.502    0    0    0
C        5.33472313       0.42251417      -4.10267205 0  0  0   6.599    6.599    6.599    0    0    0
H        4.22912246      -1.30209814      -4.81084751 0  0  0   2.508    2.508    2.508    0    0    0
C        4.21366328       0.82212412      -3.06785914 0  0  0   6.62    6.62    6.62    0    0    0
H        5.27940344       2.60071905      -2.51208334 0  0  0   2.539    2.539    2.539    0    0    0
H        4.34534038       0.18597950      -2.17472779 0  0  0   2.518    2.518    2.518    0    0    0
C        3.49178859       2.55522064      -1.30891941 0  0  0   6.62    6.62    6.62    0    0    0
H        3.87299600       1.83151585      -0.56557770 0  0  0   2.528    2.528    2.528    0    0    0
C        5.26865672      -0.97241552      -4.65285767 0  0  0   6.744    6.744    6.744    0    0    0
H        6.32598131       0.60794485      -3.65159462 0  0  0   2.551    2.551    2.551    0    0    0
H        5.77854167      -1.02829062      -5.62826870 0  0  0   2.522    2.522    2.522    0    0    0
H        5.75138706      -1.70209995      -3.98425635 0  0  0   2.496    2.496    2.496    0    0    0
H        5.91624545      -3.77634105      -1.95587237 0  0  0   2.549    2.549    2.549    0    0    0
H        7.98321832       2.76187605       0.12717341 0  0  0   2.502    2.502    2.502    0    0    0
H        6.12939349      -3.76994229       2.98835799 0  0  0   2.518    2.518    2.518    0    0    0
H       -3.11423919       0.37490259      -8.11749543 0  0  0   2.542    2.542    2.542    0    0    0
C       -0.33875623       3.85452721      -1.75526632 0  0  0   6.607    6.607    6.607    0    0    0
H        0.24257795       3.41908105      -0.92642404 0  0  0   2.529    2.529    2.529    0    0    0
H        0.30511427       4.62119153      -2.21863671 0  0  0   2.549    2.549    2.549    0    0    0
C       -1.38691001       5.82367623      -0.44075982 0  0  0   6.588    6.588    6.588    0    0    0
C       -1.62480164       4.51420744      -1.20371502 0  0  0   6.61    6.61    6.61    0    0    0
H       -0.65270745       5.61035077       0.35903345 0  0  0   2.548    2.548    2.548    0    0    0
H       -0.88068399       6.53599793      -1.11816147 0  0  0   2.554    2.554    2.554    0    0    0
H       -2.15813783       3.79062663      -0.56418181 0  0  0   2.544    2.544    2.544    0    0    0
H       -2.30291510       4.72364045      -2.05112441 0  0  0   2.538    2.538    2.538    0    0    0
C       -2.55624875       6.50961191       0.18688397 0  0  0   6.744    6.744    6.744    0    0    0
H       -3.12967581       5.83520450       0.84267158 0  0  0   2.505    2.505    2.505    0    0    0
C       -0.80242919       1.84972130       1.48873752 0  0  0   6.59    6.59    6.59    0    0    0
H        0.02421015       2.48330051       1.12429544 0  0  0   2.577    2.577    2.577    0    0    0
C       -1.93968055       3.60625571       3.09998978 0  0  0   6.614    6.614    6.614    0    0    0
H       -1.55583265       4.35326379       2.38360063 0  0  0   2.516    2.516    2.516    0    0    0
C       -1.79955887       4.21629493       4.55910579 0  0  0   6.765    6.765    6.765    0    0    0
C        3.64521997       3.98954321      -0.69079805 0  0  0   6.622    6.622    6.622    0    0    0
H        3.11495172       4.70031748      -1.34973556 0  0  0   2.561    2.561    2.561    0    0    0
C        2.89553828       5.53725443       1.13927491 0  0  0   6.6    6.6    6.6    0    0    0
H        2.16454621       6.01881786       0.46571871 0  0  0   2.538    2.538    2.538    0    0    0
H       -5.32168454       4.81316794      -3.41140438 0  0  0   2.528    2.528    2.528    0    0    0
H       -2.35185678       5.16479820       4.64075788 0  0  0   2.516    2.516    2.516    0    0    0
H        2.12655418       6.73448045       2.86251514 0  0  0   2.529    2.529    2.529    0    0    0
H       -2.21007425       7.35440317       0.80538842 0  0  0   2.512    2.512    2.512    0    0    0
H       -3.24679548       6.91833557      -0.56918683 0  0  0   2.527    2.527    2.527    0    0    0
H        2.81550718       7.05326157      -3.67823992 0  0  0   2.477    2.477    2.477    0    0    0
H       -0.20714624       2.35812560       3.51212639 0  0  0   2.505    2.505    2.505    0    0    0
H       -0.74079500       4.40990936       4.79248994 0  0  0   2.511    2.511    2.511    0    0    0
C        4.02557150       1.06038689       3.12836032 0  0  0   6.604    6.604    6.604    0    0    0
C        3.63450443       0.09403546       2.04695865 0  0  0   6.599    6.599    6.599    0    0    0
H        4.62360574       0.52810629       3.88921126 0  0  0   2.509    2.509    2.509    0    0    0
H        4.65454367       1.87362530       2.72713048 0  0  0   2.557    2.557    2.557    0    0    0
H        2.98176477      -0.69047192       2.46964843 0  0  0   2.564    2.564    2.564    0    0    0
H        3.05027241       0.60452738       1.26241447 0  0  0   2.511    2.511    2.511    0    0    0
C        3.21278757       2.41438484       5.14307542 0  0  0   6.615    6.615    6.615    0    0    0
C        2.76735339       1.65118843       3.81212966 0  0  0   6.621    6.621    6.621    0    0    0
H        2.06033701       0.84645055       4.07518497 0  0  0   2.55    2.55    2.55    0    0    0
H        2.24170083       2.34100487       3.13147230 0  0  0   2.49    2.49    2.49    0    0    0
H        1.37769447       2.39853508       6.31747878 0  0  0   2.521    2.521    2.521    0    0    0
H        1.56488131       3.83358536       5.27472863 0  0  0   2.509    2.509    2.509    0    0    0
H        3.99857756      -2.02374325       4.16231293 0  0  0   2.455    2.455    2.455    0    0    0
H        4.70260748       4.30035203      -0.70046531 0  0  0   2.526    2.526    2.526    0    0    0
C        3.08386293       4.10972963       0.73714803 0  0  0   6.591    6.591    6.591    0    0    0
H        3.76184463       3.59647334       1.43972578 0  0  0   2.493    2.493    2.493    0    0    0
H        2.11195080       3.58831218       0.79377816 0  0  0   2.56    2.56    2.56    0    0    0
C        2.37747082       5.68569019       2.64089790 0  0  0   6.767    6.767    6.767    0    0    0
H        3.15826076       5.36245647       3.34639322 0  0  0   2.494    2.494    2.494    0    0    0
H        1.47782024       5.07260364       2.80879678 0  0  0   2.501    2.501    2.501    0    0    0
H        6.29490893       2.64065882       0.72135951 0  0  0   2.43    2.43    2.43    0    0    0
C        4.65901030      -2.49139414       4.91201323 0  0  0   6.615    6.615    6.615    0    0    0
C        3.69154617      -0.97715371       6.83401318 0  0  0   6.751    6.751    6.751    0    0    0
C        2.10734482       3.11854576       5.91349731 0  0  0   6.743    6.743    6.743    0    0    0
C        7.12416772       3.33028905       0.53554793 0  0  0   6.934    6.934    6.934    0    0    0
H        5.64810238      -2.00891193       4.85115457 0  0  0   2.542    2.542    2.542    0    0    0
H        4.55509523      -0.29611162       6.78051433 0  0  0   2.536    2.536    2.536    0    0    0
H        3.84100540       6.09852817       1.03839203 0  0  0   2.546    2.546    2.546    0    0    0
H        3.72206044       1.69387376       5.80502477 0  0  0   2.511    2.511    2.511    0    0    0
H        3.97509287       3.16063399       4.85542586 0  0  0   2.562    2.562    2.562    0    0    0
H        2.52845868       3.67716713       6.76498896 0  0  0   2.524    2.524    2.524    0    0    0
H        7.42015297       3.82574733       1.46544911 0  0  0   2.477    2.477    2.477    0    0    0
H        6.83337809       4.08402818      -0.20159522 0  0  0   2.473    2.473    2.473    0    0    0
241
Lattice="50 0 0 0 50 0 0 0 50" Properties=species:S:1:pos:R:3:force:R:3:axx:R:1:ayy:R:1:azz:R:1:axy:R:1:ayz:R:1:axz:R:1 energy=-14023.536457734352 pol="829.99811 20.81927 44.59194 20.81611 830.75976 43.78593 44.69538 43.87823 915.18986" pbc="F F F"
C       -5.42173629       0.83976244      -1.95719375 0  0  0   6.585    6.585    6.585    0    0    0
C       -5.57568952       1.23845184      -3.35745699 0  0  0   6.731    6.731    6.731    0    0    0
H       -6.41922749       0.69616197      -1.50424918 0  0  0   2.575    2.575    2.575    0    0    0
H       -4.91511189      -0.13981369      -1.89888205 0  0  0   2.484    2.484    2.484    0    0    0
H       -4.60070185       1.38807969      -3.84988675 0  0  0   2.512    2.512    2.512    0    0    0
C       -6.53973545      -2.43891762      -0.52692938 0  0  0   6.611    6.611    6.611    0    0    0
H       -6.77076686      -1.40665173      -0.83158340 0  0  0   2.5    2.5    2.5    0    0    0
C       -4.42709936       1.40052081       0.29019760 0  0  0   6.601    6.601    6.601    0    0    0
C       -4.65364431       1.85289544      -1.13743750 0  0  0   6.601    6.601    6.601    0    0    0
H       -5.40713244       1.25508768       0.77915593 0  0  0   2.553    2.553    2.553    0    0    0
H       -3.91222045       0.42790206       0.32391329 0  0  0   2.519    2.519    2.519    0    0    0
H       -5.19625863       2.81559628      -1.13728157 0  0  0   2.553    2.553    2.553    0    0    0
H       -3.67534220       2.04137779      -1.61515900 0  0  0   2.556    2.556    2.556    0    0    0
C       -5.59374193      -2.00390211       1.91338869 0  0  0   6.621    6.621    6.621    0    0    0
H       -6.07193429      -1.00812976       1.86880667 0  0  0   2.55    2.55    2.55    0    0    0
H       -3.48417458       5.56140769      -0.33993871 0  0  0   2.441    2.441    2.441    0    0    0
C       -3.63243675      -1.87649353      -4.99005743 0  0  0   6.756    6.756    6.756    0    0    0
H       -4.29130906      -0.99874509      -5.09004478 0  0  0   2.49    2.49    2.49    0    0    0
C       -2.38612007      -0.92814271      -2.95321644 0  0  0   6.606    6.606    6.606    0    0    0
H       -2.93133578       0.02955038      -3.00378704 0  0  0   2.473    2.473    2.473    0    0    0
C       -1.18623713       0.12144027      -1.03677296 0  0  0   6.599    6.599    6.599    0    0    0
H       -2.08685733      -0.23899237      -0.50870932 0  0  0   2.54    2.54    2.54    0    0    0
H       -1.37309449       1.18227401      -1.27544516 0  0  0   2.519    2.519    2.519    0    0    0
C       -4.04066391       6.50539344      -0.40954319 0  0  0   6.943    6.943    6.943    0    0    0
H       -6.12007503       0.47683573      -3.94068480 0  0  0   2.537    2.537    2.537    0    0    0
H       -6.14052333       2.18162851      -3.44747862 0  0  0   2.539    2.539    2.539    0    0    0
H       -7.42705280      -2.81635243       0.01099813 0  0  0   2.548    2.548    2.548    0    0    0
H       -7.14706896      -3.31962598      -2.46433527 0  0  0   2.522    2.522    2.522    0    0    0
H       -4.17007562       6.77517851      -1.46671966 0  0  0   2.474    2.474    2.474    0    0    0
H       -5.02544883       6.38451868       0.06269416 0  0  0   2.485    2.485    2.485    0    0    0
H       -5.39848851      -3.00463126      -2.31803686 0  0  0   2.509    2.509    2.509    0    0    0
C       -5.30248160      -2.45675310       0.43524892 0  0  0   6.616    6.616    6.616    0    0    0
H       -4.50093459      -1.83345751       0.00309872 0  0  0   2.554    2.554    2.554    0    0    0
H       -4.89943803      -3.48512985       0.46848542 0  0  0   2.519    2.519    2.519    0    0    0
C       -2.78956914      -5.56960606      -3.00748427 0  0  0   6.744    6.744    6.744    0    0    0
H       -1.81124954      -5.73039438      -3.48810325 0  0  0   2.498    2.498    2.498    0    0    0
H       -3.10053892      -4.53343353      -3.21715273 0  0  0   2.497    2.497    2.497    0    0    0